/*--------------------------------*- C++ -*----------------------------------*\
| =========                 |                                                 |
| \\      /  F ield         | OpenFOAM: The Open Source CFD Toolbox           |
|  \\    /   O peration     | Version:  v1906                                 |
|   \\  /    A nd           | Web:      www.OpenFOAM.com                      |
|    \\/     M anipulation  |                                                 |
\*---------------------------------------------------------------------------*/
FoamFile
{
    version     2.0;
    format      ascii;
    class       volScalarField;
    location    "0.35";
    object      p;
}
// * * * * * * * * * * * * * * * * * * * * * * * * * * * * * * * * * * * * * //

dimensions      [0 2 -2 0 0 0 0];


internalField   nonuniform List<scalar> 
800
(
2.65804e-07
0.00935606
0.0222365
0.035114
0.0489003
0.063521
0.0792729
0.0965131
0.11575
0.137695
0.163349
0.194121
0.231986
0.279871
0.342389
0.423954
0.526764
0.696269
1.07065
1.22487
-0.00633321
0.00136137
0.0133264
0.0254388
0.038457
0.0521879
0.066856
0.0827243
0.100168
0.119691
0.141952
0.167786
0.19817
0.234152
0.276896
0.325332
0.369164
0.404354
0.45447
0.27624
-0.0180964
-0.0129573
-0.00253329
0.00828113
0.0199429
0.0321186
0.0448913
0.0583592
0.0726603
0.0879316
0.104248
0.121504
0.139154
0.155766
0.168438
0.170853
0.149002
0.0863426
-0.0295378
-0.278732
-0.0316734
-0.028541
-0.0196004
-0.010122
8.14443e-05
0.0105649
0.0212543
0.0320664
0.0428773
0.0534356
0.0632361
0.0713224
0.075974
0.0742701
0.0616493
0.0312134
-0.0268796
-0.122285
-0.263787
-0.472983
-0.0470004
-0.0452852
-0.0377412
-0.0296238
-0.0209741
-0.0123264
-0.00391556
0.00398678
0.0109951
0.0164966
0.0195035
0.0184644
0.0110425
-0.0060744
-0.037199
-0.0874718
-0.162128
-0.264498
-0.395943
-0.557361
-0.0646031
-0.0638984
-0.0577315
-0.0510475
-0.0440954
-0.0374812
-0.0315951
-0.0268903
-0.0239867
-0.0237848
-0.0275897
-0.0372251
-0.0550974
-0.0841287
-0.127471
-0.187992
-0.267433
-0.365286
-0.478602
-0.601966
-0.0847319
-0.0847038
-0.0798968
-0.0747176
-0.069599
-0.065198
-0.0620399
-0.0607296
-0.0620595
-0.0670982
-0.0772579
-0.0943084
-0.120294
-0.157301
-0.207064
-0.270458
-0.346951
-0.434198
-0.528178
-0.623546
-0.107511
-0.107865
-0.104379
-0.100758
-0.0975757
-0.095517
-0.0952039
-0.0973406
-0.102803
-0.112684
-0.1283
-0.151109
-0.182551
-0.223763
-0.275248
-0.336546
-0.406034
-0.480966
-0.557822
-0.632802
-0.133045
-0.133542
-0.131319
-0.129289
-0.128106
-0.128452
-0.130996
-0.13647
-0.145735
-0.159775
-0.17965
-0.206373
-0.240726
-0.283031
-0.332946
-0.389343
-0.450335
-0.51349
-0.57619
-0.635998
-0.161423
-0.161884
-0.160849
-0.160415
-0.161243
-0.163976
-0.169267
-0.177806
-0.190342
-0.20765
-0.230452
-0.259291
-0.294383
-0.335479
-0.381787
-0.431989
-0.484373
-0.537052
-0.588237
-0.636442
-0.192687
-0.192994
-0.193053
-0.19419
-0.196979
-0.201989
-0.209796
-0.220975
-0.236098
-0.255677
-0.280086
-0.30946
-0.34361
-0.381967
-0.423593
-0.46726
-0.511595
-0.555251
-0.597067
-0.636159
-0.226829
-0.226909
-0.227955
-0.230596
-0.235233
-0.24232
-0.2523
-0.265586
-0.282532
-0.303384
-0.328211
-0.356855
-0.388887
-0.423622
-0.460164
-0.497502
-0.534621
-0.570608
-0.60474
-0.636506
-0.263769
-0.263588
-0.2655
-0.269542
-0.27586
-0.284749
-0.296484
-0.311284
-0.329287
-0.350502
-0.374775
-0.401765
-0.430951
-0.461665
-0.49315
-0.524637
-0.55542
-0.58491
-0.612674
-0.638429
-0.303342
-0.302893
-0.305551
-0.310865
-0.318659
-0.329033
-0.342073
-0.357805
-0.376167
-0.396992
-0.419982
-0.444722
-0.470693
-0.49732
-0.524017
-0.550237
-0.575515
-0.599491
-0.621922
-0.642663
-0.345273
-0.34457
-0.347877
-0.35434
-0.363404
-0.37495
-0.388874
-0.40502
-0.423173
-0.443046
-0.464277
-0.486446
-0.509096
-0.531774
-0.554057
-0.575584
-0.596072
-0.61532
-0.633211
-0.649692
-0.389129
-0.388197
-0.392116
-0.399662
-0.40986
-0.422343
-0.436827
-0.453004
-0.470548
-0.489112
-0.508331
-0.527832
-0.547255
-0.566274
-0.58461
-0.602044
-0.618419
-0.633641
-0.647669
-0.660503
-0.434245
-0.433103
-0.437671
-0.446343
-0.457667
-0.471017
-0.485939
-0.501999
-0.518791
-0.535937
-0.55309
-0.569943
-0.586236
-0.601768
-0.616394
-0.630023
-0.642614
-0.654165
-0.664702
-0.674277
-0.4798
-0.47867
-0.48413
-0.494111
-0.506647
-0.520865
-0.536198
-0.552151
-0.568298
-0.584283
-0.599809
-0.614638
-0.628587
-0.641529
-0.653388
-0.664136
-0.673784
-0.682375
-0.689973
-0.696649
-0.524825
-0.525162
-0.532861
-0.545124
-0.559503
-0.574907
-0.590669
-0.606243
-0.621205
-0.635251
-0.648191
-0.659923
-0.67042
-0.679716
-0.687881
-0.695013
-0.70122
-0.70661
-0.711288
-0.715372
-0.563173
-0.567171
-0.579216
-0.595782
-0.614255
-0.633476
-0.652727
-0.671384
-0.688929
-0.70497
-0.719242
-0.7316
-0.742005
-0.750503
-0.757208
-0.762282
-0.765912
-0.768302
-0.769655
-0.770096
-1.25724
-2.316
-2.27505
-2.04876
-1.85449
-1.70195
-1.58318
-1.48931
-1.41296
-1.34919
-1.29481
-1.24768
-1.20631
-1.16966
-1.137
-1.10793
-1.08244
-1.06065
-1.04472
-1.03281
-0.871356
-1.54468
-1.71952
-1.71838
-1.66225
-1.58668
-1.51037
-1.44075
-1.37907
-1.32472
-1.2767
-1.23406
-1.19597
-1.16182
-1.13115
-1.10373
-1.07965
-1.05905
-1.04408
-1.03261
-0.773789
-1.17285
-1.383
-1.47117
-1.49022
-1.46985
-1.43094
-1.38573
-1.34001
-1.29633
-1.25566
-1.21824
-1.18398
-1.15273
-1.12433
-1.09875
-1.07622
-1.05692
-1.04301
-1.03212
-0.753552
-1.01398
-1.19464
-1.29952
-1.34959
-1.36211
-1.35126
-1.32743
-1.29727
-1.26472
-1.23203
-1.2004
-1.17042
-1.14241
-1.11654
-1.09298
-1.07212
-1.05419
-1.0414
-1.03128
-0.740411
-0.918365
-1.06318
-1.16545
-1.22935
-1.26219
-1.27202
-1.26621
-1.25055
-1.22921
-1.20499
-1.17974
-1.1546
-1.13028
-1.1073
-1.08605
-1.06705
-1.05065
-1.03911
-1.02997
-0.729237
-0.855325
-0.969166
-1.06113
-1.1284
-1.17221
-1.19605
-1.20432
-1.20127
-1.19048
-1.17477
-1.15622
-1.13631
-1.11611
-1.09636
-1.0777
-1.06079
-1.0461
-1.03597
-1.02803
-0.7175
-0.811405
-0.901446
-0.980796
-1.04524
-1.09328
-1.1255
-1.1439
-1.15104
-1.14958
-1.14192
-1.13006
-1.1156
-1.09978
-1.08356
-1.06775
-1.05314
-1.04032
-1.03176
-1.0252
-0.705174
-0.777931
-0.850191
-0.917617
-0.976554
-1.02468
-1.06111
-1.08618
-1.10106
-1.1074
-1.10698
-1.1015
-1.09248
-1.08118
-1.06869
-1.05593
-1.0438
-1.03303
-1.02619
-1.02111
-0.693212
-0.751042
-0.809801
-0.866821
-0.919376
-0.965229
-1.00292
-1.03184
-1.05217
-1.06467
-1.07045
-1.07079
-1.06697
-1.06018
-1.05151
-1.04194
-1.03243
-1.02383
-1.01884
-1.01526
-0.682405
-0.729112
-0.777338
-0.825453
-0.871559
-0.913823
-0.950732
-0.981271
-1.00499
-1.02199
-1.03277
-1.03815
-1.0391
-1.03662
-1.03172
-1.02539
-1.01858
-1.01223
-1.00917
-1.00696
-0.673411
-0.711456
-0.75121
-0.791683
-0.831604
-0.869596
-0.904341
-0.934746
-0.960057
-0.979927
-0.994401
-1.00386
-1.00892
-1.01035
-1.00902
-1.00582
-1.00168
-0.997584
-0.996463
-0.995317
-0.666787
-0.697844
-0.73059
-0.764432
-0.798543
-0.831944
-0.863596
-0.892507
-0.91785
-0.939048
-0.955829
-0.968224
-0.976533
-0.981265
-0.98308
-0.982748
-0.981102
-0.979134
-0.979802
-0.979245
-0.662988
-0.688258
-0.715077
-0.743096
-0.771792
-0.800498
-0.828446
-0.854829
-0.878881
-0.899963
-0.917636
-0.931692
-0.942171
-0.949335
-0.953634
-0.95567
-0.95614
-0.956004
-0.958125
-0.957467
-0.662433
-0.682807
-0.704518
-0.727367
-0.751027
-0.77506
-0.798924
-0.822008
-0.843677
-0.863338
-0.880504
-0.894846
-0.906228
-0.914716
-0.920563
-0.924194
-0.926144
-0.927296
-0.930284
-0.92862
-0.66538
-0.681551
-0.69881
-0.717038
-0.736031
-0.755503
-0.775082
-0.794326
-0.812747
-0.829853
-0.845195
-0.858419
-0.869304
-0.877789
-0.883978
-0.888133
-0.890622
-0.892229
-0.895199
-0.891416
-0.672649
-0.685113
-0.698377
-0.71237
-0.726961
-0.741958
-0.75711
-0.772105
-0.786584
-0.800168
-0.812488
-0.823227
-0.832156
-0.839161
-0.84426
-0.847595
-0.849395
-0.850331
-0.852119
-0.844963
-0.683311
-0.692553
-0.702328
-0.712563
-0.723148
-0.733932
-0.744725
-0.755295
-0.76538
-0.774702
-0.782991
-0.79001
-0.795583
-0.799617
-0.802115
-0.803156
-0.802869
-0.801818
-0.801076
-0.789255
-0.702703
-0.708666
-0.714784
-0.721011
-0.727264
-0.733432
-0.739383
-0.744954
-0.749963
-0.754218
-0.757528
-0.759731
-0.760709
-0.760408
-0.758839
-0.756052
-0.752115
-0.74751
-0.742601
-0.724661
-0.719141
-0.722879
-0.726579
-0.730106
-0.733328
-0.736093
-0.738224
-0.739533
-0.739829
-0.738935
-0.736705
-0.733047
-0.727937
-0.721435
-0.713667
-0.704786
-0.694947
-0.684635
-0.673437
-0.647902
-0.769621
-0.768272
-0.766159
-0.763257
-0.759437
-0.75457
-0.748539
-0.741246
-0.73261
-0.722589
-0.711194
-0.698509
-0.684706
-0.670047
-0.654863
-0.639491
-0.624234
-0.609277
-0.592301
-0.560546
)
;

boundaryField
{
    zeroGradient_plane
    {
        type            zeroGradient;
    }
    inlet
    {
        type            zeroGradient;
    }
    plate
    {
        type            zeroGradient;
    }
    frontAndBack
    {
        type            empty;
    }
}


// ************************************************************************* //
