/*--------------------------------*- C++ -*----------------------------------*\
| =========                 |                                                 |
| \\      /  F ield         | OpenFOAM: The Open Source CFD Toolbox           |
|  \\    /   O peration     | Version:  v1906                                 |
|   \\  /    A nd           | Web:      www.OpenFOAM.com                      |
|    \\/     M anipulation  |                                                 |
\*---------------------------------------------------------------------------*/
FoamFile
{
    version     2.0;
    format      ascii;
    class       surfaceScalarField;
    location    "0.35";
    object      phi;
}
// * * * * * * * * * * * * * * * * * * * * * * * * * * * * * * * * * * * * * //

dimensions      [0 3 -1 0 0 0 0];
oriented        oriented;


internalField   nonuniform List<scalar> 
1540
(
1.97821e-05
2.48676e-06
1.96315e-05
7.69456e-06
1.94777e-05
1.21575e-05
1.9326e-05
1.58781e-05
1.9178e-05
1.89624e-05
1.90332e-05
2.15275e-05
1.88909e-05
2.36762e-05
1.87499e-05
2.54878e-05
1.86085e-05
2.70145e-05
1.84647e-05
2.82797e-05
1.83154e-05
2.92787e-05
1.81565e-05
2.99809e-05
1.79818e-05
3.0333e-05
1.77815e-05
3.02631e-05
1.75401e-05
2.96837e-05
1.72344e-05
2.84905e-05
1.682e-05
2.65711e-05
1.61638e-05
2.38159e-05
1.49693e-05
2.00016e-05
1.44311e-05
1.31222e-05
2.1535e-05
2.61159e-06
2.13728e-05
7.85668e-06
2.12064e-05
1.2324e-05
2.10433e-05
1.60412e-05
2.08845e-05
1.91211e-05
2.07302e-05
2.16818e-05
2.05797e-05
2.38267e-05
2.04323e-05
2.56353e-05
2.0287e-05
2.71598e-05
2.01427e-05
2.84239e-05
1.99984e-05
2.94231e-05
1.98526e-05
3.01267e-05
1.97039e-05
3.04816e-05
1.95511e-05
3.0416e-05
1.93924e-05
2.98423e-05
1.92246e-05
2.86583e-05
1.90459e-05
2.67498e-05
1.8856e-05
2.40059e-05
1.85833e-05
2.02743e-05
1.52782e-05
1.77362e-05
2.3447e-05
2.73911e-06
2.3275e-05
8.02871e-06
2.30977e-05
1.25012e-05
2.29248e-05
1.62141e-05
2.27582e-05
1.92877e-05
2.25984e-05
2.18416e-05
2.24456e-05
2.39795e-05
2.23002e-05
2.57807e-05
2.21631e-05
2.72969e-05
2.20361e-05
2.85509e-05
2.19225e-05
2.95367e-05
2.18273e-05
3.02219e-05
2.17585e-05
3.05504e-05
2.17281e-05
3.04463e-05
2.17517e-05
2.98188e-05
2.18441e-05
2.85659e-05
2.20066e-05
2.65873e-05
2.21986e-05
2.38139e-05
2.22501e-05
2.02228e-05
1.58887e-05
2.16395e-05
2.55321e-05
2.86545e-06
2.53534e-05
8.20747e-06
2.51681e-05
1.26865e-05
2.49888e-05
1.63934e-05
2.48188e-05
1.94578e-05
2.46595e-05
2.20008e-05
2.45127e-05
2.41263e-05
2.4381e-05
2.59124e-05
2.42684e-05
2.74095e-05
2.41813e-05
2.86379e-05
2.41291e-05
2.95889e-05
2.4125e-05
3.0226e-05
2.41866e-05
3.04888e-05
2.43348e-05
3.02981e-05
2.4589e-05
2.95646e-05
2.49541e-05
2.82008e-05
2.53971e-05
2.61443e-05
2.58175e-05
2.33935e-05
2.60031e-05
2.00372e-05
1.62936e-05
2.55981e-05
2.78052e-05
2.98683e-06
2.76244e-05
8.38831e-06
2.74357e-05
1.28752e-05
2.72553e-05
1.65738e-05
2.70884e-05
1.96247e-05
2.69383e-05
2.21509e-05
2.68089e-05
2.42556e-05
2.6706e-05
2.60154e-05
2.6638e-05
2.74775e-05
2.66167e-05
2.86592e-05
2.66582e-05
2.95474e-05
2.67826e-05
3.01016e-05
2.70125e-05
3.02589e-05
2.73679e-05
2.99427e-05
2.78564e-05
2.90761e-05
2.84563e-05
2.76009e-05
2.90965e-05
2.5504e-05
2.96446e-05
2.28454e-05
2.99083e-05
1.97735e-05
1.65264e-05
2.96755e-05
3.02827e-05
3.09943e-06
3.01058e-05
8.5652e-06
2.99205e-05
1.30605e-05
2.97465e-05
1.67479e-05
2.95918e-05
1.97793e-05
2.94623e-05
2.22805e-05
2.93648e-05
2.43531e-05
2.9309e-05
2.60711e-05
2.93082e-05
2.74783e-05
2.93798e-05
2.85876e-05
2.95449e-05
2.93823e-05
2.98267e-05
2.98198e-05
3.02455e-05
2.98401e-05
3.0811e-05
2.93773e-05
3.15095e-05
2.83776e-05
3.22909e-05
2.68195e-05
3.30596e-05
2.47353e-05
3.36809e-05
2.22241e-05
3.40052e-05
1.94492e-05
1.66156e-05
3.3916e-05
3.29821e-05
3.1995e-06
3.28167e-05
8.7306e-06
3.26439e-05
1.32333e-05
3.24866e-05
1.69052e-05
3.23561e-05
1.99098e-05
3.22614e-05
2.23752e-05
3.22131e-05
2.44015e-05
3.22249e-05
2.60593e-05
3.23148e-05
2.73885e-05
3.25041e-05
2.83984e-05
3.28159e-05
2.90704e-05
3.32711e-05
2.93647e-05
3.3881e-05
2.92301e-05
3.46386e-05
2.86197e-05
3.5508e-05
2.75082e-05
3.64186e-05
2.5909e-05
3.72678e-05
2.38861e-05
3.79379e-05
2.1554e-05
3.8324e-05
1.90631e-05
1.65736e-05
3.83661e-05
3.59227e-05
3.28343e-06
3.57777e-05
8.87557e-06
3.56288e-05
1.33822e-05
3.55013e-05
1.70327e-05
3.54099e-05
2.00012e-05
3.5367e-05
2.2418e-05
3.5387e-05
2.43815e-05
3.54875e-05
2.59588e-05
3.56896e-05
2.71864e-05
3.6016e-05
2.80719e-05
3.64878e-05
2.85986e-05
3.71183e-05
2.87342e-05
3.79056e-05
2.84428e-05
3.88248e-05
2.77005e-05
3.9823e-05
2.651e-05
4.08204e-05
2.49115e-05
4.17214e-05
2.29851e-05
4.24328e-05
2.08426e-05
4.28851e-05
1.86107e-05
1.64094e-05
4.30493e-05
3.91252e-05
3.34776e-06
3.90108e-05
8.98995e-06
3.88995e-05
1.34935e-05
3.88175e-05
1.71146e-05
3.87827e-05
2.0036e-05
3.88106e-05
2.23901e-05
3.89188e-05
2.42733e-05
3.91276e-05
2.57499e-05
3.94592e-05
2.68548e-05
3.99344e-05
2.75967e-05
4.05682e-05
2.79649e-05
4.13631e-05
2.79393e-05
4.23029e-05
2.7503e-05
4.33483e-05
2.66551e-05
4.44371e-05
2.54212e-05
4.54909e-05
2.38577e-05
4.64279e-05
2.20481e-05
4.71786e-05
2.0092e-05
4.76986e-05
1.80907e-05
1.6133e-05
4.7975e-05
4.26124e-05
3.38918e-06
4.25397e-05
9.06263e-06
4.24814e-05
1.35518e-05
4.24631e-05
1.7133e-05
4.25041e-05
1.99951e-05
4.26225e-05
2.22717e-05
4.28378e-05
2.40579e-05
4.31713e-05
2.54165e-05
4.36433e-05
2.63828e-05
4.42697e-05
2.69702e-05
4.50568e-05
2.71778e-05
4.59955e-05
2.70007e-05
4.70573e-05
2.64411e-05
4.81942e-05
2.55183e-05
4.93422e-05
2.42732e-05
5.04308e-05
2.27691e-05
5.13942e-05
2.10846e-05
5.21824e-05
1.93038e-05
5.27676e-05
1.75056e-05
1.57555e-05
5.31451e-05
4.6409e-05
3.40451e-06
4.63897e-05
9.08195e-06
4.64012e-05
1.35402e-05
4.64658e-05
1.70684e-05
4.66027e-05
1.98582e-05
4.68307e-05
2.20437e-05
4.71695e-05
2.37191e-05
4.76387e-05
2.49473e-05
4.82545e-05
2.5767e-05
4.90256e-05
2.6199e-05
4.99488e-05
2.62546e-05
5.10045e-05
2.59449e-05
5.21564e-05
2.52893e-05
5.33532e-05
2.43215e-05
5.45351e-05
2.30913e-05
5.56426e-05
2.16616e-05
5.66249e-05
2.01023e-05
5.74466e-05
1.84821e-05
5.80904e-05
1.68617e-05
1.52898e-05
5.85561e-05
5.0542e-05
3.39065e-06
5.05879e-05
9.03611e-06
5.06864e-05
1.34417e-05
5.08535e-05
1.69012e-05
5.11057e-05
1.9606e-05
5.14601e-05
2.16893e-05
5.19343e-05
2.32449e-05
5.25439e-05
2.43377e-05
5.32992e-05
2.50118e-05
5.42008e-05
2.52974e-05
5.52367e-05
2.52187e-05
5.63803e-05
2.48013e-05
5.75915e-05
2.40781e-05
5.88208e-05
2.30921e-05
6.00161e-05
2.1896e-05
6.11292e-05
2.05486e-05
6.2122e-05
1.91096e-05
6.29699e-05
1.76342e-05
6.36624e-05
1.61692e-05
1.47511e-05
6.42011e-05
5.50409e-05
3.3445e-06
5.51636e-05
8.91345e-06
5.53659e-05
1.32394e-05
5.56542e-05
1.66129e-05
5.60388e-05
1.92214e-05
5.65327e-05
2.11955e-05
5.71486e-05
2.26289e-05
5.78967e-05
2.35897e-05
5.878e-05
2.41284e-05
5.97921e-05
2.42854e-05
6.09142e-05
2.40966e-05
6.21162e-05
2.35994e-05
6.33583e-05
2.2836e-05
6.45964e-05
2.1854e-05
6.5787e-05
2.07053e-05
6.68928e-05
1.94428e-05
6.78858e-05
1.81165e-05
6.87494e-05
1.67706e-05
6.94772e-05
1.54414e-05
1.41565e-05
7.00717e-05
5.9938e-05
3.26274e-06
6.01489e-05
8.70249e-06
6.04711e-05
1.29172e-05
6.08971e-05
1.61869e-05
6.14279e-05
1.86906e-05
6.20692e-05
2.05543e-05
6.28273e-05
2.18708e-05
6.37053e-05
2.27116e-05
6.46998e-05
2.31339e-05
6.57984e-05
2.31868e-05
6.69789e-05
2.29161e-05
6.82107e-05
2.23676e-05
6.94579e-05
2.15888e-05
7.06831e-05
2.06288e-05
7.18521e-05
1.95364e-05
7.29367e-05
1.83582e-05
7.39172e-05
1.7136e-05
7.47824e-05
1.59054e-05
7.5529e-05
1.46949e-05
1.35257e-05
7.61599e-05
6.52689e-05
3.14121e-06
6.55803e-05
8.39119e-06
6.60376e-05
1.24598e-05
6.66155e-05
1.5609e-05
6.73021e-05
1.8004e-05
6.80935e-05
1.97629e-05
6.89881e-05
2.09763e-05
6.99821e-05
2.17176e-05
7.10666e-05
2.20494e-05
7.22256e-05
2.20278e-05
7.34363e-05
2.17054e-05
7.46707e-05
2.11332e-05
7.58985e-05
2.03611e-05
7.70901e-05
1.94372e-05
7.82196e-05
1.84068e-05
7.92672e-05
1.73106e-05
8.02192e-05
1.61839e-05
8.10689e-05
1.50558e-05
8.18148e-05
1.39489e-05
1.28803e-05
8.24602e-05
7.1074e-05
2.97357e-06
7.15003e-05
7.96491e-06
7.21087e-05
1.18514e-05
7.28509e-05
1.48668e-05
7.36992e-05
1.71556e-05
7.46387e-05
1.88234e-05
7.56591e-05
1.99558e-05
7.67508e-05
2.06259e-05
7.79011e-05
2.08992e-05
7.90931e-05
2.08358e-05
8.03059e-05
2.04925e-05
8.15163e-05
1.99228e-05
8.27006e-05
1.91767e-05
8.38373e-05
1.83006e-05
8.49081e-05
1.7336e-05
8.58997e-05
1.6319e-05
8.68039e-05
1.52798e-05
8.7617e-05
1.42427e-05
8.83393e-05
1.32266e-05
1.22453e-05
8.89742e-05
7.73994e-05
2.74846e-06
7.79615e-05
7.40286e-06
7.87398e-05
1.10731e-05
7.96582e-05
1.39484e-05
8.06718e-05
1.6142e-05
8.17537e-05
1.77415e-05
8.28861e-05
1.88233e-05
8.40547e-05
1.94573e-05
8.5245e-05
1.97088e-05
8.64415e-05
1.96393e-05
8.76274e-05
1.93067e-05
8.87855e-05
1.87646e-05
8.98999e-05
1.80623e-05
9.09567e-05
1.72439e-05
9.1945e-05
1.63477e-05
9.28576e-05
1.54064e-05
9.36906e-05
1.44468e-05
9.44432e-05
1.34901e-05
9.51171e-05
1.25527e-05
1.16465e-05
9.57159e-05
8.43041e-05
2.4408e-06
8.5033e-05
6.67395e-06
8.60031e-05
1.0103e-05
8.71084e-05
1.28432e-05
8.82874e-05
1.4963e-05
8.95035e-05
1.65255e-05
9.07328e-05
1.7594e-05
9.19582e-05
1.82319e-05
9.31657e-05
1.85013e-05
9.43427e-05
1.84624e-05
9.54775e-05
1.81719e-05
9.65597e-05
1.76824e-05
9.75805e-05
1.70415e-05
9.85332e-05
1.62912e-05
9.94134e-05
1.54675e-05
0.000100219
1.46007e-05
0.000100951
1.37153e-05
0.00010161
1.28307e-05
0.000102201
1.19619e-05
1.11198e-05
0.000102728
9.18699e-05
1.99253e-06
9.28065e-05
5.73735e-06
9.39885e-05
8.921e-06
9.5286e-05
1.15456e-05
9.66258e-05
1.36232e-05
9.79633e-05
1.51879e-05
9.92702e-05
1.62871e-05
0.000100528
1.69741e-05
0.000101724
1.73049e-05
0.000102852
1.73352e-05
0.000103905
1.71186e-05
0.000104882
1.67054e-05
0.000105782
1.61414e-05
0.000106606
1.54669e-05
0.000107357
1.47168e-05
0.000108037
1.39203e-05
0.000108651
1.31013e-05
0.000109203
1.22787e-05
0.000109698
1.14672e-05
1.06777e-05
0.00011014
0.000100143
0.000101315
0.000102714
0.00010421
0.000105723
0.000107204
0.000108616
0.000109936
0.000111152
0.000112256
0.000113247
0.00011413
0.000114908
0.000115592
0.000116189
0.000116709
0.000117161
0.000117555
0.000117896
0.000118194
6.61334e-06
6.50891e-06
3.66808e-06
2.94525e-06
2.33824e-06
1.32984e-06
1.68788e-06
6.5036e-07
1.32847e-06
3.59416e-07
1.10181e-06
2.2666e-07
9.42801e-07
1.59006e-07
8.23253e-07
1.19548e-07
7.29442e-07
9.38116e-08
6.53731e-07
7.57107e-08
5.91451e-07
6.22805e-08
5.39607e-07
5.18436e-08
4.96271e-07
4.33364e-08
4.60257e-07
3.60138e-08
4.30958e-07
2.9299e-08
4.08255e-07
2.27026e-08
3.92378e-07
1.58771e-08
3.83781e-07
8.59685e-09
3.81201e-07
2.57988e-09
-1.81887e-09
1.41059e-05
1.01392e-05
1.05404e-05
6.51075e-06
7.88039e-06
3.98988e-06
6.06578e-06
2.46496e-06
4.84471e-06
1.58049e-06
4.00178e-06
1.06959e-06
3.39514e-06
7.65647e-07
2.93994e-06
5.7475e-07
2.58613e-06
4.4762e-07
2.30347e-06
3.5837e-07
2.07303e-06
2.92721e-07
1.88262e-06
2.42256e-07
1.72432e-06
2.01638e-07
1.59313e-06
1.67197e-07
1.48626e-06
1.36172e-07
1.40263e-06
1.06332e-07
1.34251e-06
7.60006e-08
1.30639e-06
4.47172e-08
1.29159e-06
1.73764e-08
2.56026e-10
1.95213e-05
1.22574e-05
1.65812e-05
9.45085e-06
1.3669e-05
6.90213e-06
1.12036e-05
4.93037e-06
9.26284e-06
3.52121e-06
7.77658e-06
2.55586e-06
6.63904e-06
1.90319e-06
5.75652e-06
1.45726e-06
5.05897e-06
1.14517e-06
4.49733e-06
9.20016e-07
4.03798e-06
7.52071e-07
3.65804e-06
6.22198e-07
3.34205e-06
5.17619e-07
3.07995e-06
4.29305e-07
2.86572e-06
3.50397e-07
2.69665e-06
2.75403e-07
2.57254e-06
2.00109e-07
2.49353e-06
1.23728e-07
2.45573e-06
5.51817e-08
1.33416e-08
2.42391e-05
1.36165e-05
2.20006e-05
1.16894e-05
1.93483e-05
9.55436e-06
1.67155e-05
7.56324e-06
1.43509e-05
5.88572e-06
1.2345e-05
4.56176e-06
1.06916e-05
3.5566e-06
9.34254e-06
2.80635e-06
8.24081e-06
2.2469e-06
7.3354e-06
1.82543e-06
6.58551e-06
1.50196e-06
5.96038e-06
1.24733e-06
5.43775e-06
1.04025e-06
5.0023e-06
8.64754e-07
4.64445e-06
7.0825e-07
4.35939e-06
5.60462e-07
4.1461e-06
4.13392e-07
4.00435e-06
2.65483e-07
3.92889e-06
1.30641e-07
4.61856e-08
2.87726e-05
1.45194e-05
2.71212e-05
1.33408e-05
2.49048e-05
1.17708e-05
2.24162e-05
1.00519e-05
1.99189e-05
8.38306e-06
1.75904e-05
6.89021e-06
1.55193e-05
5.6277e-06
1.37281e-05
4.59758e-06
1.22016e-05
3.77341e-06
1.09087e-05
3.11832e-06
9.81525e-06
2.59538e-06
8.89046e-06
2.17212e-06
8.10925e-06
1.82146e-06
7.45298e-06
1.52102e-06
6.90928e-06
1.25196e-06
6.47154e-06
9.98201e-07
6.13802e-06
7.46916e-07
5.90837e-06
4.95126e-07
5.77637e-06
2.62646e-07
1.10558e-07
3.33332e-05
1.51021e-05
3.21513e-05
1.45227e-05
3.03987e-05
1.35234e-05
2.8223e-05
1.22276e-05
2.5822e-05
1.0784e-05
2.3383e-05
9.32927e-06
2.10467e-05
7.96396e-06
1.88986e-05
6.74572e-06
1.69767e-05
5.6953e-06
1.5287e-05
4.80804e-06
1.38173e-05
4.06502e-06
1.25483e-05
3.4412e-06
1.14594e-05
2.91032e-06
1.05333e-05
2.44709e-06
9.7575e-06
2.02778e-06
9.12505e-06
1.63066e-06
8.63441e-06
1.23755e-06
8.28609e-06
8.43451e-07
8.07381e-06
4.74918e-07
2.21979e-07
3.80313e-05
1.54369e-05
3.72247e-05
1.53292e-05
3.59037e-05
1.48444e-05
3.41118e-05
1.40195e-05
3.19616e-05
1.29343e-05
2.95998e-05
1.16911e-05
2.7172e-05
1.03917e-05
2.47977e-05
9.11996e-06
2.25602e-05
7.93288e-06
2.05074e-05
6.86076e-06
1.86606e-05
5.91184e-06
1.7023e-05
5.07882e-06
1.55885e-05
4.34484e-06
1.43479e-05
3.68765e-06
1.32935e-05
3.08226e-06
1.24211e-05
2.50303e-06
1.17317e-05
1.92695e-06
1.12284e-05
1.34672e-06
1.0907e-05
7.96354e-07
4.0048e-07
4.29189e-05
1.55674e-05
4.242e-05
1.58281e-05
4.14828e-05
1.57816e-05
4.00887e-05
1.54135e-05
3.82774e-05
1.47456e-05
3.61368e-05
1.38317e-05
3.37829e-05
1.27456e-05
3.13362e-05
1.15667e-05
2.89031e-05
1.0366e-05
2.65659e-05
9.19797e-06
2.43806e-05
8.09707e-06
2.23808e-05
7.07861e-06
2.05836e-05
6.14208e-06
1.89963e-05
5.27496e-06
1.76223e-05
4.45622e-06
1.64657e-05
3.65964e-06
1.55335e-05
2.85915e-06
1.48347e-05
2.04551e-06
1.43702e-05
1.26091e-06
6.71261e-07
4.80187e-05
1.55236e-05
4.77779e-05
1.60689e-05
4.71772e-05
1.63824e-05
4.6166e-05
1.64246e-05
4.47329e-05
1.61787e-05
4.29099e-05
1.56546e-05
4.07678e-05
1.48878e-05
3.84021e-05
1.39323e-05
3.59174e-05
1.28507e-05
3.3412e-05
1.17033e-05
3.09689e-05
1.05402e-05
2.86515e-05
9.39594e-06
2.65052e-05
8.28842e-06
2.45608e-05
7.21935e-06
2.28404e-05
6.17663e-06
2.13623e-05
5.13771e-06
2.01452e-05
4.07625e-06
1.92085e-05
2.98223e-06
1.85627e-05
1.90668e-06
1.06504e-06
5.33385e-05
1.53303e-05
5.33168e-05
1.60906e-05
5.30087e-05
1.66905e-05
5.23512e-05
1.70821e-05
5.13022e-05
1.72277e-05
4.98507e-05
1.71061e-05
4.80213e-05
1.67172e-05
4.58715e-05
1.60821e-05
4.34832e-05
1.52391e-05
4.095e-05
1.42365e-05
3.83659e-05
1.31243e-05
3.5816e-05
1.19458e-05
3.33721e-05
1.07324e-05
3.10917e-05
9.4997e-06
2.90212e-05
8.24708e-06
2.71999e-05
6.95908e-06
2.56641e-05
5.61205e-06
2.44495e-05
4.19678e-06
2.35825e-05
2.77374e-06
1.61774e-06
5.88768e-05
1.50095e-05
5.90405e-05
1.59269e-05
5.89842e-05
1.67468e-05
5.86437e-05
1.74227e-05
5.79623e-05
1.79091e-05
5.6901e-05
1.81675e-05
5.54466e-05
1.81717e-05
5.36166e-05
1.79121e-05
5.14584e-05
1.73972e-05
4.90438e-05
1.66511e-05
4.64594e-05
1.57086e-05
4.37975e-05
1.46078e-05
4.11472e-05
1.33826e-05
3.85902e-05
1.20567e-05
3.61986e-05
1.06387e-05
3.4037e-05
9.12073e-06
3.21654e-05
7.48363e-06
3.0642e-05
5.72015e-06
2.95154e-05
3.90036e-06
2.36908e-06
6.46271e-05
1.45836e-05
6.49445e-05
1.56095e-05
6.51005e-05
1.65908e-05
6.50358e-05
1.74873e-05
6.46903e-05
1.82547e-05
6.40101e-05
1.88477e-05
6.29562e-05
1.92255e-05
6.15124e-05
1.93559e-05
5.96896e-05
1.922e-05
5.75271e-05
1.88137e-05
5.50892e-05
1.81466e-05
5.24584e-05
1.72386e-05
4.97276e-05
1.61134e-05
4.69928e-05
1.47916e-05
4.43477e-05
1.32837e-05
4.18825e-05
1.1586e-05
3.9684e-05
9.68208e-06
3.78379e-05
7.56624e-06
3.64211e-05
5.31714e-06
3.35957e-06
7.058e-05
1.40753e-05
7.10198e-05
1.51697e-05
7.13484e-05
1.62622e-05
7.15149e-05
1.73209e-05
7.14623e-05
1.83072e-05
7.11326e-05
1.91774e-05
7.04728e-05
1.98853e-05
6.94427e-05
2.0386e-05
6.8022e-05
2.06407e-05
6.6216e-05
2.06197e-05
6.40575e-05
2.03051e-05
6.16055e-05
1.96905e-05
5.8941e-05
1.87779e-05
5.61601e-05
1.75725e-05
5.33682e-05
1.60757e-05
5.0675e-05
1.42791e-05
4.81929e-05
1.21642e-05
4.60362e-05
9.72291e-06
4.43139e-05
7.03953e-06
4.62559e-06
7.67259e-05
1.35093e-05
7.72558e-05
1.46398e-05
7.77165e-05
1.58015e-05
7.80663e-05
1.69711e-05
7.82557e-05
1.81179e-05
7.82292e-05
1.92039e-05
7.79297e-05
2.01847e-05
7.73041e-05
2.10116e-05
7.63102e-05
2.16346e-05
7.49239e-05
2.20059e-05
7.31456e-05
2.20834e-05
7.10031e-05
2.1833e-05
6.85526e-05
2.12284e-05
6.58755e-05
2.02496e-05
6.30741e-05
1.8877e-05
6.02666e-05
1.70867e-05
5.75826e-05
1.48482e-05
5.51611e-05
1.21444e-05
5.31413e-05
9.05936e-06
6.19243e-06
8.30579e-05
1.29115e-05
8.36444e-05
1.40533e-05
8.41951e-05
1.52508e-05
8.46775e-05
1.64886e-05
8.50512e-05
1.77442e-05
8.52678e-05
1.89873e-05
8.5273e-05
2.01795e-05
8.50103e-05
2.12744e-05
8.44259e-05
2.2219e-05
8.3476e-05
2.29559e-05
8.21333e-05
2.34261e-05
8.03942e-05
2.3572e-05
7.82835e-05
2.33391e-05
7.58562e-05
2.26769e-05
7.31968e-05
2.15364e-05
7.04162e-05
1.98672e-05
6.7648e-05
1.76164e-05
6.50444e-05
1.47481e-05
6.27661e-05
1.13376e-05
8.06613e-06
8.95749e-05
1.23108e-05
9.0182e-05
1.34461e-05
9.07783e-05
1.46546e-05
9.13398e-05
1.59271e-05
9.18352e-05
1.72488e-05
9.22252e-05
1.85973e-05
9.24629e-05
1.99418e-05
9.24954e-05
2.1242e-05
9.22666e-05
2.24477e-05
9.17231e-05
2.34994e-05
9.08197e-05
2.43295e-05
8.95274e-05
2.48644e-05
8.78401e-05
2.50264e-05
8.57811e-05
2.47359e-05
8.34059e-05
2.39117e-05
8.08031e-05
2.247e-05
7.80926e-05
2.03268e-05
7.54226e-05
1.74181e-05
7.29589e-05
1.38014e-05
1.02261e-05
9.62901e-05
1.17366e-05
9.68812e-05
1.2855e-05
9.74775e-05
1.40582e-05
9.80624e-05
1.53423e-05
9.8613e-05
1.66982e-05
9.90996e-05
1.81107e-05
9.94849e-05
1.95564e-05
9.97244e-05
2.10025e-05
9.97672e-05
2.24048e-05
9.95597e-05
2.37069e-05
9.90494e-05
2.48398e-05
9.81916e-05
2.57221e-05
9.69568e-05
2.62612e-05
9.53378e-05
2.63549e-05
9.33565e-05
2.5893e-05
9.1068e-05
2.47586e-05
8.85617e-05
2.28331e-05
8.59609e-05
2.00188e-05
8.3414e-05
1.63482e-05
1.26212e-05
0.000103236
1.12278e-05
0.000103767
1.23244e-05
0.000104312
1.3513e-05
0.000104861
1.47932e-05
0.000105399
1.61605e-05
0.000105904
1.76053e-05
0.00010635
1.91108e-05
0.000106702
2.0651e-05
0.000106917
2.21889e-05
0.000106951
2.36737e-05
0.000106751
2.50397e-05
0.000106268
2.62046e-05
0.00010546
2.70692e-05
0.000104297
2.75181e-05
0.000102769
2.74207e-05
0.000100894
2.66342e-05
9.87169e-05
2.501e-05
9.63176e-05
2.24182e-05
9.38026e-05
1.88632e-05
1.51706e-05
0.000110567
1.08008e-05
0.000111012
1.188e-05
0.000111469
1.30555e-05
0.000111933
1.43289e-05
0.000112395
1.56986e-05
0.000112842
1.71584e-05
0.000113257
1.86962e-05
0.000113617
2.02913e-05
0.000113893
2.19125e-05
0.000114051
2.35156e-05
0.000114051
2.50403e-05
0.000113847
2.64084e-05
0.000113394
2.75218e-05
0.00011265
2.8262e-05
0.00011158
2.84905e-05
0.000110163
2.80518e-05
0.000108392
2.67807e-05
0.000106286
2.45242e-05
0.000103896
2.12528e-05
1.77834e-05
0.000118481
0.000118787
0.000119111
0.000119452
0.000119805
0.000120165
0.000120522
0.000120863
0.000121168
0.000121414
0.000121567
0.000121588
0.000121432
0.000121047
0.000120378
0.000119368
0.00011796
0.000116097
0.000113724
)
;

boundaryField
{
    zeroGradient_plane
    {
        type            calculated;
        value           nonuniform List<scalar> 
80
(
1.35299e-06
4.5652e-06
7.52197e-06
1.00499e-05
1.21093e-05
1.37077e-05
1.48752e-05
1.56535e-05
1.60893e-05
1.62311e-05
1.61271e-05
1.58233e-05
1.53626e-05
1.47834e-05
1.41196e-05
1.34001e-05
1.26489e-05
1.18856e-05
1.11255e-05
1.03798e-05
1.05135e-05
1.15743e-05
1.27315e-05
1.39884e-05
1.53453e-05
1.67986e-05
1.8339e-05
1.99504e-05
2.16068e-05
2.32701e-05
2.48872e-05
2.63869e-05
2.76779e-05
2.86472e-05
2.91597e-05
2.90615e-05
2.81892e-05
2.63867e-05
2.36265e-05
2.07544e-05
3.8302e-07
1.28951e-06
2.44264e-06
3.89604e-06
5.712e-06
7.96239e-06
1.07285e-05
1.40994e-05
1.8169e-05
2.30298e-05
2.87641e-05
3.54307e-05
4.30478e-05
5.15744e-05
6.08924e-05
7.07989e-05
8.10189e-05
9.12533e-05
0.000101284
0.000110753
-2.36819e-06
-7.54405e-06
-1.20037e-05
-1.57265e-05
-1.88143e-05
-2.13827e-05
-2.35339e-05
-2.53468e-05
-2.68731e-05
-2.81358e-05
-2.91294e-05
-2.9822e-05
-3.01582e-05
-3.00629e-05
-2.94423e-05
-2.81848e-05
-2.61567e-05
-2.31597e-05
-1.88071e-05
-1.25841e-05
)
;
    }
    inlet
    {
        type            calculated;
        value           nonuniform List<scalar> 
20
(
-1.99006e-05
-2.16598e-05
-2.35745e-05
-2.56584e-05
-2.79266e-05
-3.03953e-05
-3.30822e-05
-3.60066e-05
-3.91895e-05
-4.26538e-05
-4.64243e-05
-5.05282e-05
-5.49948e-05
-5.98562e-05
-6.51474e-05
-7.09063e-05
-7.71743e-05
-8.39964e-05
-9.14216e-05
-9.95031e-05
)
;
    }
    plate
    {
        type            calculated;
        value           uniform 0;
    }
    frontAndBack
    {
        type            empty;
        value           nonuniform 0();
    }
}


// ************************************************************************* //
