/*--------------------------------*- C++ -*----------------------------------*\
| =========                 |                                                 |
| \\      /  F ield         | OpenFOAM: The Open Source CFD Toolbox           |
|  \\    /   O peration     | Version:  v1906                                 |
|   \\  /    A nd           | Web:      www.OpenFOAM.com                      |
|    \\/     M anipulation  |                                                 |
\*---------------------------------------------------------------------------*/
FoamFile
{
    version     2.0;
    format      ascii;
    class       volVectorField;
    location    "0.35";
    object      U;
}
// * * * * * * * * * * * * * * * * * * * * * * * * * * * * * * * * * * * * * //

dimensions      [0 1 -1 0 0 0 0];


internalField   nonuniform List<vector> 
800
(
(0.997849 0.0243335 0)
(0.990618 0.0832404 0)
(0.982737 0.143706 0)
(0.975055 0.204635 0)
(0.96751 0.266251 0)
(0.960155 0.329189 0)
(0.952949 0.394209 0)
(0.945842 0.462012 0)
(0.938762 0.533064 0)
(0.931618 0.607411 0)
(0.924286 0.684462 0)
(0.916592 0.76276 0)
(0.908281 0.83974 0)
(0.898974 0.911464 0)
(0.888181 0.972268 0)
(0.874876 1.01425 0)
(0.855892 1.02668 0)
(0.829467 0.994483 0)
(0.811039 0.890889 0)
(0.782416 0.663202 0)
(0.997942 0.0254538 0)
(0.990851 0.0848053 0)
(0.983026 0.145452 0)
(0.975415 0.206504 0)
(0.967967 0.268236 0)
(0.960742 0.331301 0)
(0.953709 0.396467 0)
(0.946836 0.464444 0)
(0.940084 0.535712 0)
(0.933407 0.610332 0)
(0.926754 0.687739 0)
(0.920068 0.766514 0)
(0.913284 0.844156 0)
(0.906335 0.916829 0)
(0.899232 0.979053 0)
(0.891964 1.02325 0)
(0.883662 1.0394 0)
(0.874697 1.01492 0)
(0.873588 0.930199 0)
(0.864689 0.748143 0)
(0.998121 0.0268852 0)
(0.991327 0.0868618 0)
(0.983646 0.147753 0)
(0.976206 0.208957 0)
(0.968983 0.270828 0)
(0.962053 0.334035 0)
(0.955412 0.399356 0)
(0.949072 0.467504 0)
(0.943058 0.538959 0)
(0.937425 0.613782 0)
(0.932273 0.691401 0)
(0.927769 0.770383 0)
(0.924185 0.848189 0)
(0.921935 0.920918 0)
(0.921653 0.983002 0)
(0.924109 1.02681 0)
(0.929543 1.0424 0)
(0.937756 1.01815 0)
(0.948011 0.940262 0)
(0.943644 0.792022 0)
(0.998353 0.0282114 0)
(0.992006 0.0888527 0)
(0.984603 0.149991 0)
(0.977468 0.211325 0)
(0.970628 0.273297 0)
(0.96419 0.336589 0)
(0.958198 0.401979 0)
(0.952728 0.470165 0)
(0.947906 0.5416 0)
(0.943926 0.616296 0)
(0.941087 0.693606 0)
(0.939822 0.771971 0)
(0.94073 0.848664 0)
(0.944579 0.919526 0)
(0.952239 0.978722 0)
(0.964361 1.01859 0)
(0.980591 1.02991 0)
(0.998844 1.00338 0)
(1.01399 0.931688 0)
(1.01312 0.813103 0)
(0.998609 0.0294531 0)
(0.992847 0.0908177 0)
(0.985892 0.152216 0)
(0.97923 0.213656 0)
(0.972965 0.275677 0)
(0.967248 0.338973 0)
(0.962191 0.404306 0)
(0.957955 0.472332 0)
(0.954787 0.543439 0)
(0.953041 0.617538 0)
(0.953212 0.693825 0)
(0.955949 0.770531 0)
(0.96204 0.84467 0)
(0.972304 0.911838 0)
(0.987361 0.966164 0)
(1.00714 1.00057 0)
(1.03015 1.00763 0)
(1.05294 0.981437 0)
(1.06965 0.91984 0)
(1.07184 0.827087 0)
(0.998871 0.0306283 0)
(0.993814 0.0927806 0)
(0.987503 0.154452 0)
(0.981513 0.215966 0)
(0.976042 0.277964 0)
(0.971303 0.341147 0)
(0.967485 0.406239 0)
(0.96485 0.473828 0)
(0.963767 0.54419 0)
(0.964737 0.617078 0)
(0.968398 0.691483 0)
(0.975499 0.765397 0)
(0.986806 0.835624 0)
(1.0029 0.897724 0)
(1.02382 0.946221 0)
(1.04867 0.97521 0)
(1.07509 0.979495 0)
(1.09924 0.956171 0)
(1.11616 0.906086 0)
(1.12084 0.834694 0)
(0.999123 0.0317021 0)
(0.994872 0.0946714 0)
(0.989412 0.15661 0)
(0.984317 0.218146 0)
(0.979884 0.280014 0)
(0.976393 0.342916 0)
(0.974117 0.407516 0)
(0.973417 0.474297 0)
(0.974768 0.543385 0)
(0.978766 0.61434 0)
(0.986103 0.685936 0)
(0.997481 0.755974 0)
(1.01345 0.821204 0)
(1.03416 0.877445 0)
(1.05905 0.919999 0)
(1.08656 0.94442 0)
(1.11402 0.947547 0)
(1.13795 0.928563 0)
(1.15475 0.889591 0)
(1.16163 0.835541 0)
(0.999356 0.0326315 0)
(0.99599 0.0963901 0)
(0.991583 0.158556 0)
(0.987619 0.22003 0)
(0.984476 0.281624 0)
(0.982499 0.344025 0)
(0.982043 0.407812 0)
(0.983543 0.473337 0)
(0.987541 0.54055 0)
(0.994661 0.608814 0)
(1.00554 0.676726 0)
(1.0207 0.742012 0)
(1.04037 0.801576 0)
(1.06424 0.851761 0)
(1.09126 0.888866 0)
(1.11956 0.909865 0)
(1.14664 0.913163 0)
(1.16972 0.899122 0)
(1.18639 0.870118 0)
(1.19516 0.830048 0)
(0.999566 0.0333793 0)
(0.997138 0.0978289 0)
(0.993971 0.160138 0)
(0.991367 0.221428 0)
(0.989758 0.282561 0)
(0.989538 0.344191 0)
(0.991118 0.406793 0)
(0.99498 0.470567 0)
(1.00168 0.535288 0)
(1.01178 0.600156 0)
(1.02578 0.663674 0)
(1.04395 0.723644 0)
(1.06616 0.777317 0)
(1.09173 0.821724 0)
(1.11938 0.854185 0)
(1.14724 0.872853 0)
(1.17319 0.877169 0)
(1.1952 0.868019 0)
(1.21172 0.847553 0)
(1.222 0.8187 0)
(0.999751 0.0339124 0)
(0.998289 0.0988711 0)
(0.996519 0.161181 0)
(0.995482 0.22212 0)
(0.995619 0.282564 0)
(0.997346 0.343113 0)
(1.0011 0.404127 0)
(1.00735 0.465653 0)
(1.01662 0.527318 0)
(1.02935 0.588217 0)
(1.04584 0.646872 0)
(1.06608 0.701304 0)
(1.08968 0.749236 0)
(1.11574 0.788433 0)
(1.1429 0.81711 0)
(1.16955 0.83429 0)
(1.19401 0.840008 0)
(1.21487 0.835289 0)
(1.23117 0.821901 0)
(1.24252 0.801998 0)
(0.999914 0.0341983 0)
(0.999423 0.0993914 0)
(0.999164 0.16149 0)
(0.999857 0.221859 0)
(1.0019 0.281351 0)
(1.00569 0.340489 0)
(1.01164 0.399515 0)
(1.02019 0.458344 0)
(1.03173 0.516497 0)
(1.04658 0.573048 0)
(1.06481 0.626644 0)
(1.0862 0.675621 0)
(1.11015 0.718225 0)
(1.13572 0.752899 0)
(1.16167 0.778562 0)
(1.18666 0.794813 0)
(1.20946 0.801982 0)
(1.22911 0.801034 0)
(1.24502 0.793362 0)
(1.25702 0.780536 0)
(1.00006 0.0342057 0)
(1.00052 0.0992607 0)
(1.00184 0.160862 0)
(1.00437 0.22039 0)
(1.0084 0.278638 0)
(1.01428 0.336038 0)
(1.02235 0.392718 0)
(1.03295 0.448494 0)
(1.04636 0.502839 0)
(1.06271 0.554885 0)
(1.08191 0.603481 0)
(1.10359 0.647327 0)
(1.12708 0.68517 0)
(1.15147 0.716011 0)
(1.17572 0.739281 0)
(1.19882 0.754923 0)
(1.21986 0.763382 0)
(1.23823 0.765491 0)
(1.25356 0.762319 0)
(1.26578 0.755015 0)
(1.00019 0.0339037 0)
(1.00157 0.0983503 0)
(1.00448 0.159092 0)
(1.00888 0.217463 0)
(1.01491 0.274165 0)
(1.0228 0.329526 0)
(1.03278 0.38358 0)
(1.0451 0.436079 0)
(1.05988 0.486506 0)
(1.07711 0.53411 0)
(1.09657 0.577983 0)
(1.11782 0.617186 0)
(1.14022 0.650894 0)
(1.16297 0.678537 0)
(1.18525 0.699885 0)
(1.20631 0.715074 0)
(1.22554 0.724563 0)
(1.24253 0.729039 0)
(1.25706 0.729319 0)
(1.2691 0.726247 0)
(1.0003 0.0332607 0)
(1.00257 0.0965341 0)
(1.00704 0.155985 0)
(1.01328 0.212848 0)
(1.02122 0.267711 0)
(1.03095 0.320792 0)
(1.04257 0.372047 0)
(1.05619 0.421199 0)
(1.07181 0.467787 0)
(1.08932 0.511207 0)
(1.10844 0.550799 0)
(1.1287 0.585941 0)
(1.14956 0.616147 0)
(1.17037 0.641151 0)
(1.19052 0.660937 0)
(1.20948 0.675733 0)
(1.22683 0.685967 0)
(1.24232 0.692199 0)
(1.25583 0.695052 0)
(1.26735 0.695155 0)
(1.00042 0.0322397 0)
(1.00354 0.0936842 0)
(1.0095 0.151352 0)
(1.0175 0.206344 0)
(1.0272 0.259108 0)
(1.03852 0.309753 0)
(1.05143 0.358165 0)
(1.06591 0.404067 0)
(1.08187 0.447069 0)
(1.09913 0.486724 0)
(1.1174 0.522591 0)
(1.13627 0.554301 0)
(1.15528 0.581621 0)
(1.17397 0.604484 0)
(1.19189 0.623 0)
(1.20869 0.637432 0)
(1.22411 0.648163 0)
(1.23799 0.655648 0)
(1.25027 0.660368 0)
(1.26096 0.662799 0)
(1.00054 0.0307928 0)
(1.0045 0.089663 0)
(1.01192 0.145013 0)
(1.02157 0.197779 0)
(1.03283 0.248246 0)
(1.04545 0.296401 0)
(1.05927 0.342068 0)
(1.07418 0.384976 0)
(1.09002 0.424805 0)
(1.10658 0.461242 0)
(1.12361 0.494017 0)
(1.14078 0.52295 0)
(1.15776 0.547974 0)
(1.17421 0.569149 0)
(1.18985 0.586651 0)
(1.20446 0.60075 0)
(1.21787 0.611785 0)
(1.23002 0.62013 0)
(1.24086 0.626167 0)
(1.25044 0.630265 0)
(1.00069 0.0288532 0)
(1.00556 0.0843276 0)
(1.01443 0.13682 0)
(1.02562 0.187051 0)
(1.03823 0.235106 0)
(1.05185 0.280832 0)
(1.06623 0.323984 0)
(1.08117 0.364288 0)
(1.09649 0.401481 0)
(1.112 0.435346 0)
(1.12749 0.465735 0)
(1.14274 0.492587 0)
(1.15753 0.515939 0)
(1.17165 0.535914 0)
(1.18495 0.552716 0)
(1.19731 0.566605 0)
(1.20865 0.57788 0)
(1.21894 0.586852 0)
(1.22819 0.593835 0)
(1.23645 0.599123 0)
(1.00093 0.0262472 0)
(1.00691 0.0774069 0)
(1.01726 0.126572 0)
(1.02988 0.174099 0)
(1.04361 0.219795 0)
(1.05794 0.263329 0)
(1.07255 0.30436 0)
(1.08721 0.342583 0)
(1.10174 0.377755 0)
(1.11597 0.409712 0)
(1.12978 0.438376 0)
(1.14302 0.463757 0)
(1.15558 0.485945 0)
(1.16736 0.505103 0)
(1.1783 0.521443 0)
(1.18836 0.535214 0)
(1.19752 0.546684 0)
(1.20581 0.556125 0)
(1.21326 0.5638 0)
(1.21991 0.56996 0)
(1.00141 0.0222315 0)
(1.00889 0.0676968 0)
(1.02076 0.112994 0)
(1.03464 0.15773 0)
(1.04923 0.201299 0)
(1.06396 0.243142 0)
(1.0785 0.282791 0)
(1.09258 0.319872 0)
(1.10604 0.354108 0)
(1.11879 0.385319 0)
(1.13074 0.413422 0)
(1.14187 0.438426 0)
(1.15215 0.460421 0)
(1.1616 0.47956 0)
(1.17022 0.496044 0)
(1.17806 0.510103 0)
(1.18514 0.521985 0)
(1.19152 0.531936 0)
(1.19725 0.540198 0)
(1.20237 0.546997 0)
(1.00205 0.0156252 0)
(1.01118 0.0539734 0)
(1.02439 0.0948519 0)
(1.03928 0.136465 0)
(1.05459 0.177675 0)
(1.06975 0.217696 0)
(1.08436 0.255953 0)
(1.09816 0.292019 0)
(1.11095 0.325582 0)
(1.12264 0.356435 0)
(1.1332 0.384467 0)
(1.14263 0.409652 0)
(1.15098 0.432043 0)
(1.15833 0.451751 0)
(1.16477 0.468938 0)
(1.17038 0.483796 0)
(1.17526 0.496538 0)
(1.1795 0.507383 0)
(1.18318 0.516549 0)
(1.18638 0.524243 0)
(0.424053 0.234858 0)
(0.24266 0.0804819 0)
(0.141756 0.0267902 0)
(0.0956298 0.00935523 0)
(0.0730339 0.0037673 0)
(0.0595876 0.00189925 0)
(0.0504736 0.00118007 0)
(0.0437801 0.000827921 0)
(0.0385951 0.000614264 0)
(0.0344439 0.000468208 0)
(0.0310474 0.000362237 0)
(0.0282278 0.000282328 0)
(0.0258691 0.000219966 0)
(0.0238977 0.000169493 0)
(0.0222708 0.000126915 0)
(0.0209732 8.92757e-05 0)
(0.0200053 5.49197e-05 0)
(0.0194087 2.24159e-05 0)
(0.0191245 6.77396e-07 0)
(0.0192306 -1.47479e-05 0)
(0.7331 0.443157 0)
(0.562978 0.224738 0)
(0.414536 0.108177 0)
(0.312679 0.0536157 0)
(0.245716 0.0286096 0)
(0.200225 0.0167715 0)
(0.168076 0.0107343 0)
(0.144388 0.00733771 0)
(0.126235 0.00524727 0)
(0.11188 0.00386989 0)
(0.100261 0.00291473 0)
(0.0907003 0.00222427 0)
(0.0827576 0.00170593 0)
(0.0761485 0.00130167 0)
(0.070701 0.0009731 0)
(0.066334 0.000693919 0)
(0.0630252 0.000447717 0)
(0.060856 0.000227692 0)
(0.0596779 6.58056e-05 0)
(0.0596542 -2.61981e-05 0)
(0.881379 0.575218 0)
(0.767503 0.376096 0)
(0.636579 0.232346 0)
(0.520285 0.141438 0)
(0.42747 0.0872217 0)
(0.356119 0.0555739 0)
(0.301734 0.0369036 0)
(0.2599 0.0255027 0)
(0.227129 0.01823 0)
(0.200949 0.0133852 0)
(0.179667 0.0100268 0)
(0.162132 0.0076122 0)
(0.14756 0.00581436 0)
(0.135432 0.00442668 0)
(0.125418 0.00331287 0)
(0.117346 0.00238082 0)
(0.111153 0.00157122 0)
(0.10693 0.000864284 0)
(0.104457 0.00032295 0)
(0.103944 3.31864e-05 0)
(0.978681 0.658211 0)
(0.905711 0.496871 0)
(0.805584 0.355067 0)
(0.699175 0.245653 0)
(0.600438 0.167759 0)
(0.515228 0.114968 0)
(0.444482 0.079976 0)
(0.386714 0.0567821 0)
(0.339655 0.0411861 0)
(0.301123 0.0304631 0)
(0.269323 0.022896 0)
(0.242876 0.0174056 0)
(0.220769 0.0133032 0)
(0.202288 0.0101384 0)
(0.186961 0.00760817 0)
(0.174522 0.00550548 0)
(0.164856 0.00369459 0)
(0.158051 0.00212932 0)
(0.153835 0.000906099 0)
(0.152448 0.000241344 0)
(1.05204 0.712378 0)
(1.00554 0.585125 0)
(0.933706 0.459005 0)
(0.846652 0.347681 0)
(0.755371 0.257324 0)
(0.667931 0.188273 0)
(0.588884 0.137546 0)
(0.519922 0.10106 0)
(0.460925 0.0749867 0)
(0.410903 0.0562724 0)
(0.368607 0.0426771 0)
(0.332839 0.032626 0)
(0.30259 0.0250308 0)
(0.277082 0.0191381 0)
(0.255764 0.0144215 0)
(0.238308 0.0105118 0)
(0.224566 0.00716201 0)
(0.21462 0.00427978 0)
(0.208171 0.00199542 0)
(0.205499 0.000701105 0)
(1.11027 0.748266 0)
(1.08132 0.648911 0)
(1.03195 0.542587 0)
(0.965562 0.439312 0)
(0.888492 0.346594 0)
(0.807481 0.268418 0)
(0.72807 0.205579 0)
(0.653933 0.156734 0)
(0.586964 0.119542 0)
(0.527741 0.0914934 0)
(0.476048 0.07035 0)
(0.431294 0.0542979 0)
(0.392781 0.0419449 0)
(0.359867 0.0322495 0)
(0.332051 0.0244419 0)
(0.309017 0.0179598 0)
(0.290623 0.0124156 0)
(0.276975 0.00764896 0)
(0.267779 0.00382381 0)
(0.26339 0.00154817 0)
(1.15756 0.770426 0)
(1.14067 0.693647 0)
(1.10822 0.607002 0)
(1.06029 0.516684 0)
(0.999476 0.428936 0)
(0.930017 0.348698 0)
(0.856567 0.27894 0)
(0.783253 0.220674 0)
(0.713142 0.173429 0)
(0.648157 0.135872 0)
(0.589261 0.106335 0)
(0.53674 0.0831607 0)
(0.490493 0.0648845 0)
(0.450248 0.05029 0)
(0.415722 0.0384056 0)
(0.386726 0.0284801 0)
(0.363202 0.0199729 0)
(0.345331 0.0126402 0)
(0.332875 0.00667998 0)
(0.326325 0.00296002 0)
(1.1959 0.781463 0)
(1.18756 0.72289 0)
(1.1677 0.654103 0)
(1.13502 0.578437 0)
(1.08982 0.500158 0)
(1.03403 0.423588 0)
(0.970657 0.352321 0)
(0.903137 0.288752 0)
(0.834719 0.233989 0)
(0.76805 0.188056 0)
(0.705027 0.150238 0)
(0.646846 0.119428 0)
(0.594154 0.0943909 0)
(0.54724 0.0739376 0)
(0.506217 0.0570098 0)
(0.471164 0.0427224 0)
(0.442217 0.030401 0)
(0.419706 0.0197174 0)
(0.403516 0.01091 0)
(0.394369 0.00516368 0)
(1.22629 0.783126 0)
(1.22414 0.739245 0)
(1.21363 0.685973 0)
(1.19307 0.624783 0)
(1.16161 0.55815 0)
(1.11953 0.489171 0)
(1.06824 0.421042 0)
(1.00995 0.356548 0)
(0.947347 0.297715 0)
(0.883082 0.245678 0)
(0.819508 0.200748 0)
(0.758491 0.162605 0)
(0.701389 0.130524 0)
(0.649138 0.103582 0)
(0.602373 0.0808053 0)
(0.561578 0.0612857 0)
(0.527198 0.0442748 0)
(0.499815 0.0293852 0)
(0.479508 0.0169129 0)
(0.467365 0.00844141 0)
(1.24936 0.776724 0)
(1.25168 0.744693 0)
(1.24808 0.704562 0)
(1.23692 0.656698 0)
(1.2169 0.602246 0)
(1.18736 0.543064 0)
(1.14848 0.481479 0)
(1.10126 0.41996 0)
(1.04743 0.360755 0)
(0.989105 0.305618 0)
(0.928561 0.25567 0)
(0.86793 0.211386 0)
(0.809061 0.172703 0)
(0.753457 0.139158 0)
(0.70231 0.110057 0)
(0.65659 0.0846148 0)
(0.617159 0.0621088 0)
(0.584946 0.0421492 0)
(0.560302 0.0251252 0)
(0.544847 0.0131319 0)
(1.2656 0.763395 0)
(1.27107 0.740869 0)
(1.27247 0.711654 0)
(1.26841 0.675515 0)
(1.25752 0.632732 0)
(1.23873 0.584159 0)
(1.21146 0.531194 0)
(1.17575 0.475627 0)
(1.13232 0.41941 0)
(1.08253 0.364401 0)
(1.02812 0.312133 0)
(0.971084 0.263681 0)
(0.913409 0.219605 0)
(0.856951 0.180002 0)
(0.80336 0.144594 0)
(0.754089 0.11287 0)
(0.710461 0.0842589 0)
(0.673828 0.0584527 0)
(0.644869 0.0359896 0)
(0.625926 0.0196229 0)
(1.27541 0.74424 0)
(1.28296 0.729256 0)
(1.28785 0.708939 0)
(1.28896 0.682773 0)
(1.28508 0.65053 0)
(1.27503 0.612372 0)
(1.25787 0.568908 0)
(1.23302 0.521181 0)
(1.20041 0.470572 0)
(1.16058 0.418641 0)
(1.11458 0.366933 0)
(1.0639 0.316787 0)
(1.01033 0.269202 0)
(0.955768 0.224769 0)
(0.90211 0.183678 0)
(0.851175 0.145791 0)
(0.804714 0.110803 0)
(0.764503 0.078587 0)
(0.73158 0.0499019 0)
(0.70919 0.0283303 0)
(1.27919 0.720384 0)
(1.28796 0.711295 0)
(1.29511 0.698087 0)
(1.2998 0.680154 0)
(1.30102 0.657016 0)
(1.2977 0.628415 0)
(1.2888 0.594392 0)
(1.27344 0.555344 0)
(1.25105 0.512023 0)
(1.22149 0.465481 0)
(1.1851 0.416956 0)
(1.14276 0.36772 0)
(1.09575 0.318926 0)
(1.04573 0.271474 0)
(0.994568 0.225943 0)
(0.944226 0.182583 0)
(0.896748 0.141418 0)
(0.85426 0.102585 0)
(0.818109 0.0671358 0)
(0.792604 0.0396578 0)
(1.2774 0.693009 0)
(1.28666 0.688442 0)
(1.29506 0.680791 0)
(1.30199 0.669464 0)
(1.30665 0.653896 0)
(1.30818 0.633615 0)
(1.3056 0.608311 0)
(1.29797 0.577908 0)
(1.28446 0.54261 0)
(1.2645 0.502921 0)
(1.23787 0.459609 0)
(1.20482 0.413626 0)
(1.16606 0.365994 0)
(1.12276 0.317676 0)
(1.07649 0.269457 0)
(1.02911 0.22188 0)
(0.98273 0.175288 0)
(0.939657 0.130112 0)
(0.90142 0.0877513 0)
(0.87349 0.0539369 0)
(1.27053 0.663407 0)
(1.2797 0.662231 0)
(1.28852 0.658819 0)
(1.29657 0.652642 0)
(1.30327 0.643147 0)
(1.30795 0.629787 0)
(1.3098 0.612075 0)
(1.30796 0.589638 0)
(1.30155 0.562283 0)
(1.2898 0.530036 0)
(1.27215 0.493174 0)
(1.24834 0.452206 0)
(1.21852 0.407822 0)
(1.18332 0.360801 0)
(1.14383 0.311913 0)
(1.10156 0.261823 0)
(1.05845 0.211088 0)
(1.01672 0.160398 0)
(0.977894 0.111505 0)
(0.948609 0.0713515 0)
(1.25918 0.632871 0)
(1.26775 0.634185 0)
(1.2763 0.633931 0)
(1.28455 0.631665 0)
(1.29211 0.626887 0)
(1.29847 0.619061 0)
(1.30303 0.607637 0)
(1.30507 0.592097 0)
(1.30381 0.571997 0)
(1.29846 0.54702 0)
(1.28829 0.517026 0)
(1.27276 0.482077 0)
(1.25161 0.442439 0)
(1.22495 0.398553 0)
(1.19333 0.350969 0)
(1.15779 0.300275 0)
(1.11984 0.247083 0)
(1.08138 0.192238 0)
(1.04366 0.137785 0)
(1.01442 0.0918409 0)
(1.24406 0.603155 0)
(1.25165 0.606254 0)
(1.25939 0.608283 0)
(1.2671 0.608879 0)
(1.27453 0.607615 0)
(1.28134 0.604007 0)
(1.2871 0.597518 0)
(1.29126 0.587583 0)
(1.29321 0.573638 0)
(1.29225 0.55516 0)
(1.28769 0.53171 0)
(1.27886 0.502984 0)
(1.26527 0.46884 0)
(1.24665 0.429318 0)
(1.22311 0.384628 0)
(1.19512 0.33512 0)
(1.16368 0.281295 0)
(1.13011 0.224012 0)
(1.09516 0.165505 0)
(1.06757 0.11491 0)
(1.22609 0.575037 0)
(1.23229 0.579449 0)
(1.23872 0.583161 0)
(1.24528 0.585876 0)
(1.2518 0.587232 0)
(1.25807 0.5868 0)
(1.26381 0.584083 0)
(1.26864 0.578524 0)
(1.27212 0.569517 0)
(1.27371 0.556436 0)
(1.27281 0.538667 0)
(1.26883 0.515652 0)
(1.26118 0.486937 0)
(1.24942 0.452209 0)
(1.2333 0.411329 0)
(1.21286 0.36435 0)
(1.18851 0.311564 0)
(1.16086 0.253722 0)
(1.13005 0.193102 0)
(1.10562 0.139611 0)
(1.20713 0.552776 0)
(1.21191 0.558018 0)
(1.21686 0.56276 0)
(1.22192 0.566753 0)
(1.22702 0.569691 0)
(1.23203 0.571206 0)
(1.23679 0.570855 0)
(1.24108 0.568127 0)
(1.24463 0.562446 0)
(1.24708 0.553175 0)
(1.24803 0.539649 0)
(1.247 0.521199 0)
(1.24347 0.497193 0)
(1.23697 0.46709 0)
(1.22705 0.430483 0)
(1.21341 0.387154 0)
(1.19591 0.337147 0)
(1.1744 0.280993 0)
(1.14836 0.220796 0)
(1.12813 0.16691 0)
(1.18931 0.530933 0)
(1.19229 0.537185 0)
(1.19546 0.5431 0)
(1.19881 0.548466 0)
(1.20231 0.55302 0)
(1.20591 0.55644 0)
(1.20954 0.558339 0)
(1.21309 0.558257 0)
(1.21639 0.555659 0)
(1.21922 0.549936 0)
(1.2213 0.540417 0)
(1.22226 0.526384 0)
(1.22167 0.507104 0)
(1.21903 0.481876 0)
(1.21381 0.450083 0)
(1.20544 0.411261 0)
(1.19333 0.365208 0)
(1.17661 0.312246 0)
(1.15438 0.25442 0)
(1.13769 0.202204 0)
)
;

boundaryField
{
    zeroGradient_plane
    {
        type            zeroGradient;
    }
    inlet
    {
        type            fixedValue;
        value           uniform (1 0 0);
    }
    plate
    {
        type            noSlip;
    }
    frontAndBack
    {
        type            empty;
    }
}


// ************************************************************************* //
