/*--------------------------------*- C++ -*----------------------------------*\
| =========                 |                                                 |
| \\      /  F ield         | OpenFOAM: The Open Source CFD Toolbox           |
|  \\    /   O peration     | Version:  v1906                                 |
|   \\  /    A nd           | Web:      www.OpenFOAM.com                      |
|    \\/     M anipulation  |                                                 |
\*---------------------------------------------------------------------------*/
FoamFile
{
    version     2.0;
    format      ascii;
    class       volScalarField;
    location    "0.45";
    object      p;
}
// * * * * * * * * * * * * * * * * * * * * * * * * * * * * * * * * * * * * * //

dimensions      [0 2 -2 0 0 0 0];


internalField   nonuniform List<scalar> 
800
(
7.37726e-07
0.00935753
0.0222377
0.035116
0.0489026
0.0635236
0.0792759
0.0965165
0.115753
0.137699
0.163354
0.194126
0.231991
0.279877
0.342396
0.423962
0.526773
0.696279
1.07066
1.22488
-0.00633275
0.00136274
0.0133275
0.0254406
0.038459
0.0521902
0.0668587
0.0827273
0.100171
0.119695
0.141956
0.167791
0.198175
0.234158
0.276902
0.325339
0.369173
0.404363
0.454481
0.276253
-0.0180961
-0.0129561
-0.00253252
0.0082825
0.0199446
0.0321205
0.0448935
0.0583618
0.0726631
0.0879349
0.104252
0.121508
0.139159
0.155772
0.168444
0.17086
0.14901
0.0863513
-0.0295282
-0.278722
-0.0316733
-0.0285401
-0.0195999
-0.010121
8.27135e-05
0.0105664
0.0212561
0.0320685
0.0428797
0.0534383
0.0632393
0.0713261
0.0759782
0.074275
0.0616548
0.0312196
-0.0268728
-0.122278
-0.26378
-0.472975
-0.0470006
-0.0452844
-0.037741
-0.0296231
-0.0209732
-0.0123253
-0.00391422
0.0039884
0.010997
0.0164989
0.0195062
0.0184675
0.0110462
-0.00607019
-0.0371943
-0.0874666
-0.162122
-0.264493
-0.395938
-0.557356
-0.0646036
-0.0638979
-0.0577315
-0.0510472
-0.0440949
-0.0374805
-0.0315942
-0.0268891
-0.0239852
-0.0237831
-0.0275875
-0.0372225
-0.0550944
-0.0841253
-0.127467
-0.187988
-0.267429
-0.365282
-0.478598
-0.601963
-0.0847327
-0.0847036
-0.079897
-0.0747176
-0.0695989
-0.0651977
-0.0620395
-0.060729
-0.0620586
-0.067097
-0.0772564
-0.0943065
-0.120291
-0.157298
-0.207061
-0.270455
-0.346948
-0.434196
-0.528176
-0.623545
-0.107512
-0.107865
-0.104379
-0.100758
-0.097576
-0.0955172
-0.095204
-0.0973405
-0.102802
-0.112684
-0.128299
-0.151108
-0.182549
-0.223762
-0.275247
-0.336544
-0.406033
-0.480965
-0.557822
-0.632802
-0.133047
-0.133543
-0.13132
-0.129289
-0.128106
-0.128453
-0.130996
-0.136471
-0.145735
-0.159775
-0.17965
-0.206373
-0.240725
-0.28303
-0.332946
-0.389343
-0.450335
-0.513491
-0.57619
-0.635999
-0.161425
-0.161885
-0.16085
-0.160417
-0.161244
-0.163978
-0.169269
-0.177807
-0.190343
-0.207651
-0.230453
-0.259292
-0.294383
-0.335479
-0.381788
-0.43199
-0.484374
-0.537054
-0.588239
-0.636445
-0.192689
-0.192995
-0.193055
-0.194192
-0.19698
-0.201991
-0.209797
-0.220977
-0.2361
-0.255679
-0.280087
-0.309462
-0.343612
-0.381969
-0.423595
-0.467263
-0.511598
-0.555254
-0.59707
-0.636163
-0.226832
-0.226911
-0.227957
-0.230598
-0.235236
-0.242323
-0.252303
-0.265588
-0.282534
-0.303386
-0.328214
-0.356858
-0.38889
-0.423625
-0.460167
-0.497506
-0.534625
-0.570612
-0.604745
-0.636511
-0.263772
-0.263591
-0.265502
-0.269545
-0.275863
-0.284752
-0.296487
-0.311288
-0.32929
-0.350505
-0.374778
-0.401769
-0.430955
-0.461669
-0.493154
-0.524642
-0.555425
-0.584916
-0.61268
-0.638435
-0.303345
-0.302896
-0.305554
-0.310868
-0.318662
-0.329036
-0.342077
-0.357809
-0.376171
-0.396996
-0.419987
-0.444727
-0.470699
-0.497326
-0.524022
-0.550243
-0.575521
-0.599498
-0.621929
-0.64267
-0.345277
-0.344573
-0.347881
-0.354344
-0.363408
-0.374955
-0.388879
-0.405024
-0.423178
-0.443051
-0.464283
-0.486451
-0.509102
-0.53178
-0.554064
-0.575591
-0.596079
-0.615328
-0.633219
-0.649701
-0.389133
-0.388201
-0.39212
-0.399666
-0.409864
-0.422348
-0.436833
-0.45301
-0.470554
-0.489118
-0.508337
-0.527839
-0.547262
-0.566282
-0.584618
-0.602052
-0.618428
-0.63365
-0.647678
-0.660513
-0.434249
-0.433108
-0.437676
-0.446348
-0.457673
-0.471022
-0.485945
-0.502006
-0.518798
-0.535944
-0.553097
-0.56995
-0.586244
-0.601776
-0.616402
-0.630032
-0.642623
-0.654174
-0.664712
-0.674287
-0.479806
-0.478675
-0.484135
-0.494117
-0.506652
-0.520871
-0.536204
-0.552158
-0.568306
-0.584291
-0.599817
-0.614646
-0.628595
-0.641537
-0.653397
-0.664146
-0.673794
-0.682385
-0.689984
-0.69666
-0.524831
-0.525167
-0.532867
-0.54513
-0.559509
-0.574914
-0.590676
-0.606251
-0.621212
-0.635259
-0.648199
-0.659931
-0.670429
-0.679725
-0.687891
-0.695023
-0.70123
-0.70662
-0.711299
-0.715383
-0.563179
-0.567177
-0.579222
-0.595789
-0.614262
-0.633483
-0.652734
-0.671392
-0.688937
-0.704978
-0.71925
-0.731609
-0.742014
-0.750512
-0.757218
-0.762291
-0.765922
-0.768312
-0.769665
-0.770107
-1.25721
-2.31598
-2.27503
-2.04876
-1.85449
-1.70195
-1.58318
-1.48932
-1.41297
-1.34921
-1.29483
-1.24771
-1.20634
-1.16969
-1.13704
-1.10798
-1.0825
-1.06071
-1.0448
-1.03291
-0.871339
-1.54467
-1.71951
-1.71838
-1.66225
-1.58669
-1.51038
-1.44076
-1.37909
-1.32473
-1.27672
-1.23408
-1.196
-1.16186
-1.13119
-1.10377
-1.0797
-1.05911
-1.04415
-1.0327
-0.773778
-1.17284
-1.38299
-1.47116
-1.49022
-1.46985
-1.43095
-1.38573
-1.34002
-1.29634
-1.25568
-1.21826
-1.18401
-1.15276
-1.12437
-1.09879
-1.07628
-1.05699
-1.04309
-1.03221
-0.753544
-1.01398
-1.19463
-1.29951
-1.34959
-1.36212
-1.35127
-1.32744
-1.29728
-1.26473
-1.23205
-1.20042
-1.17045
-1.14244
-1.11658
-1.09303
-1.07218
-1.05426
-1.04148
-1.03137
-0.740406
-0.918361
-1.06317
-1.16545
-1.22935
-1.26219
-1.27202
-1.26622
-1.25056
-1.22922
-1.20501
-1.17976
-1.15462
-1.13032
-1.10734
-1.08609
-1.06711
-1.05071
-1.03919
-1.03007
-0.729234
-0.855323
-0.969165
-1.06113
-1.1284
-1.17221
-1.19606
-1.20433
-1.20128
-1.19049
-1.17478
-1.15624
-1.13634
-1.11614
-1.0964
-1.07775
-1.06085
-1.04616
-1.03605
-1.02813
-0.717498
-0.811404
-0.901447
-0.980798
-1.04525
-1.09328
-1.12551
-1.14391
-1.15105
-1.14959
-1.14193
-1.13008
-1.11563
-1.09981
-1.0836
-1.06779
-1.05319
-1.04039
-1.03184
-1.0253
-0.705174
-0.777932
-0.850193
-0.91762
-0.976559
-1.02469
-1.06112
-1.08619
-1.10107
-1.10742
-1.107
-1.10152
-1.0925
-1.08121
-1.06873
-1.05598
-1.04385
-1.03309
-1.02626
-1.02121
-0.693214
-0.751045
-0.809804
-0.866825
-0.919381
-0.965235
-1.00292
-1.03185
-1.05218
-1.06468
-1.07046
-1.07081
-1.06699
-1.06021
-1.05154
-1.04198
-1.03248
-1.02389
-1.01891
-1.01535
-0.682408
-0.729116
-0.777342
-0.825458
-0.871565
-0.91383
-0.95074
-0.981281
-1.00501
-1.022
-1.03279
-1.03817
-1.03912
-1.03665
-1.03176
-1.02543
-1.01863
-1.01229
-1.00925
-1.00705
-0.673415
-0.711461
-0.751215
-0.791689
-0.831611
-0.869604
-0.90435
-0.934756
-0.960069
-0.979941
-0.994417
-1.00388
-1.00894
-1.01038
-1.00905
-1.00586
-1.00173
-0.997643
-0.996533
-0.995408
-0.666793
-0.69785
-0.730597
-0.764439
-0.798551
-0.831953
-0.863606
-0.892518
-0.917862
-0.939062
-0.955845
-0.968242
-0.976554
-0.98129
-0.983111
-0.982786
-0.981148
-0.979192
-0.979872
-0.979335
-0.662995
-0.688265
-0.715084
-0.743104
-0.771801
-0.800508
-0.828457
-0.85484
-0.878893
-0.899977
-0.917651
-0.93171
-0.942192
-0.94936
-0.953664
-0.955707
-0.956185
-0.956059
-0.958193
-0.957555
-0.66244
-0.682816
-0.704527
-0.727376
-0.751037
-0.77507
-0.798935
-0.82202
-0.84369
-0.863352
-0.88052
-0.894864
-0.906249
-0.91474
-0.920593
-0.92423
-0.926187
-0.92735
-0.93035
-0.928704
-0.665389
-0.68156
-0.698819
-0.717048
-0.736042
-0.755514
-0.775094
-0.794339
-0.81276
-0.829868
-0.845212
-0.858438
-0.869325
-0.877813
-0.884007
-0.888167
-0.890664
-0.89228
-0.895262
-0.891497
-0.672659
-0.685123
-0.698388
-0.712381
-0.726972
-0.74197
-0.757123
-0.772118
-0.786598
-0.800183
-0.812505
-0.823246
-0.832177
-0.839184
-0.844288
-0.847628
-0.849435
-0.850379
-0.852179
-0.84504
-0.683321
-0.692563
-0.702339
-0.712575
-0.72316
-0.733945
-0.744738
-0.755309
-0.765395
-0.774718
-0.783008
-0.790029
-0.795603
-0.79964
-0.802142
-0.803187
-0.802906
-0.801864
-0.801132
-0.789326
-0.702714
-0.708677
-0.714795
-0.721023
-0.727276
-0.733445
-0.739396
-0.744968
-0.749978
-0.754234
-0.757545
-0.759749
-0.760729
-0.76043
-0.758864
-0.75608
-0.752149
-0.747551
-0.742651
-0.724724
-0.719152
-0.72289
-0.726591
-0.730118
-0.733341
-0.736106
-0.738238
-0.739547
-0.739844
-0.73895
-0.736721
-0.733063
-0.727955
-0.721454
-0.713689
-0.704811
-0.694975
-0.68467
-0.673479
-0.647955
-0.769631
-0.768282
-0.76617
-0.763268
-0.759448
-0.754581
-0.748551
-0.741258
-0.732622
-0.722601
-0.711206
-0.698522
-0.684719
-0.670061
-0.654877
-0.639507
-0.624253
-0.6093
-0.592331
-0.560585
)
;

boundaryField
{
    zeroGradient_plane
    {
        type            zeroGradient;
    }
    inlet
    {
        type            zeroGradient;
    }
    plate
    {
        type            zeroGradient;
    }
    frontAndBack
    {
        type            empty;
    }
}


// ************************************************************************* //
