/*--------------------------------*- C++ -*----------------------------------*\
| =========                 |                                                 |
| \\      /  F ield         | OpenFOAM: The Open Source CFD Toolbox           |
|  \\    /   O peration     | Version:  v1906                                 |
|   \\  /    A nd           | Web:      www.OpenFOAM.com                      |
|    \\/     M anipulation  |                                                 |
\*---------------------------------------------------------------------------*/
FoamFile
{
    version     2.0;
    format      ascii;
    class       surfaceScalarField;
    location    "0.45";
    object      phi;
}
// * * * * * * * * * * * * * * * * * * * * * * * * * * * * * * * * * * * * * //

dimensions      [0 3 -1 0 0 0 0];
oriented        oriented;


internalField   nonuniform List<scalar> 
1540
(
1.9782e-05
2.48674e-06
1.96315e-05
7.69447e-06
1.94777e-05
1.21573e-05
1.9326e-05
1.58777e-05
1.91779e-05
1.89618e-05
1.90332e-05
2.15268e-05
1.88909e-05
2.36754e-05
1.87499e-05
2.5487e-05
1.86085e-05
2.70136e-05
1.84647e-05
2.82788e-05
1.83154e-05
2.92779e-05
1.81565e-05
2.99801e-05
1.79817e-05
3.03323e-05
1.77815e-05
3.02625e-05
1.75401e-05
2.96832e-05
1.72344e-05
2.849e-05
1.682e-05
2.65708e-05
1.61638e-05
2.38156e-05
1.49693e-05
2.00014e-05
1.4431e-05
1.31222e-05
2.1535e-05
2.61158e-06
2.13728e-05
7.8566e-06
2.12064e-05
1.23238e-05
2.10433e-05
1.60409e-05
2.08845e-05
1.91206e-05
2.07302e-05
2.16811e-05
2.05797e-05
2.38259e-05
2.04323e-05
2.56344e-05
2.0287e-05
2.71589e-05
2.01427e-05
2.8423e-05
1.99983e-05
2.94222e-05
1.98525e-05
3.01259e-05
1.97039e-05
3.04809e-05
1.9551e-05
3.04153e-05
1.93924e-05
2.98418e-05
1.92246e-05
2.86578e-05
1.90459e-05
2.67495e-05
1.88559e-05
2.40056e-05
1.85832e-05
2.02741e-05
1.5278e-05
1.77362e-05
2.3447e-05
2.7391e-06
2.32749e-05
8.02863e-06
2.30977e-05
1.2501e-05
2.29248e-05
1.62137e-05
2.27582e-05
1.92872e-05
2.25984e-05
2.18409e-05
2.24456e-05
2.39787e-05
2.23001e-05
2.57799e-05
2.2163e-05
2.7296e-05
2.20361e-05
2.855e-05
2.19225e-05
2.95359e-05
2.18272e-05
3.02212e-05
2.17585e-05
3.05497e-05
2.17281e-05
3.04457e-05
2.17516e-05
2.98182e-05
2.1844e-05
2.85655e-05
2.20066e-05
2.65869e-05
2.21986e-05
2.38136e-05
2.22501e-05
2.02226e-05
1.58885e-05
2.16396e-05
2.55321e-05
2.86545e-06
2.53533e-05
8.20738e-06
2.51681e-05
1.26863e-05
2.49888e-05
1.6393e-05
2.48187e-05
1.94572e-05
2.46595e-05
2.20002e-05
2.45127e-05
2.41255e-05
2.4381e-05
2.59116e-05
2.42684e-05
2.74086e-05
2.41813e-05
2.86371e-05
2.41291e-05
2.95881e-05
2.41249e-05
3.02253e-05
2.41865e-05
3.04881e-05
2.43347e-05
3.02975e-05
2.45889e-05
2.95641e-05
2.4954e-05
2.82003e-05
2.53971e-05
2.61439e-05
2.58175e-05
2.33932e-05
2.60031e-05
2.0037e-05
1.62934e-05
2.55982e-05
2.78052e-05
2.98683e-06
2.76244e-05
8.38823e-06
2.74357e-05
1.2875e-05
2.72553e-05
1.65735e-05
2.70883e-05
1.96241e-05
2.69382e-05
2.21502e-05
2.68089e-05
2.42549e-05
2.6706e-05
2.60145e-05
2.66379e-05
2.74767e-05
2.66167e-05
2.86584e-05
2.66582e-05
2.95466e-05
2.67826e-05
3.01008e-05
2.70125e-05
3.02582e-05
2.73679e-05
2.99421e-05
2.78564e-05
2.90755e-05
2.84563e-05
2.76005e-05
2.90965e-05
2.55036e-05
2.96447e-05
2.28451e-05
2.99084e-05
1.97733e-05
1.65262e-05
2.96756e-05
3.02827e-05
3.09943e-06
3.01058e-05
8.56512e-06
2.99205e-05
1.30602e-05
2.97465e-05
1.67475e-05
2.95918e-05
1.97788e-05
2.94623e-05
2.22798e-05
2.93648e-05
2.43523e-05
2.9309e-05
2.60703e-05
2.93082e-05
2.74775e-05
2.93798e-05
2.85868e-05
2.95449e-05
2.93815e-05
2.98267e-05
2.98191e-05
3.02455e-05
2.98394e-05
3.08109e-05
2.93767e-05
3.15095e-05
2.8377e-05
3.22909e-05
2.68191e-05
3.30596e-05
2.47349e-05
3.36809e-05
2.22238e-05
3.40052e-05
1.94489e-05
1.66154e-05
3.3916e-05
3.29821e-05
3.19951e-06
3.28167e-05
8.73053e-06
3.26439e-05
1.32331e-05
3.24866e-05
1.69048e-05
3.23561e-05
1.99093e-05
3.22614e-05
2.23745e-05
3.22131e-05
2.44007e-05
3.22249e-05
2.60584e-05
3.23147e-05
2.73876e-05
3.2504e-05
2.83975e-05
3.28159e-05
2.90696e-05
3.32711e-05
2.93639e-05
3.3881e-05
2.92294e-05
3.46386e-05
2.86191e-05
3.55081e-05
2.75076e-05
3.64186e-05
2.59085e-05
3.72678e-05
2.38857e-05
3.7938e-05
2.15537e-05
3.83241e-05
1.90628e-05
1.65734e-05
3.83662e-05
3.59227e-05
3.28343e-06
3.57777e-05
8.8755e-06
3.56288e-05
1.3382e-05
3.55013e-05
1.70323e-05
3.54099e-05
2.00006e-05
3.5367e-05
2.24173e-05
3.5387e-05
2.43807e-05
3.54875e-05
2.59579e-05
3.56896e-05
2.71855e-05
3.6016e-05
2.8071e-05
3.64878e-05
2.85978e-05
3.71183e-05
2.87334e-05
3.79056e-05
2.84421e-05
3.88248e-05
2.76999e-05
3.9823e-05
2.65095e-05
4.08204e-05
2.4911e-05
4.17215e-05
2.29847e-05
4.24328e-05
2.08423e-05
4.28852e-05
1.86104e-05
1.64092e-05
4.30494e-05
3.91252e-05
3.34776e-06
3.90108e-05
8.98987e-06
3.88995e-05
1.34933e-05
3.88175e-05
1.71143e-05
3.87827e-05
2.00355e-05
3.88106e-05
2.23895e-05
3.89187e-05
2.42725e-05
3.91276e-05
2.57491e-05
3.94592e-05
2.68539e-05
3.99344e-05
2.75958e-05
4.05682e-05
2.7964e-05
4.13631e-05
2.79385e-05
4.23029e-05
2.75023e-05
4.33483e-05
2.66544e-05
4.44371e-05
2.54207e-05
4.54909e-05
2.38572e-05
4.6428e-05
2.20476e-05
4.71787e-05
2.00916e-05
4.76987e-05
1.80904e-05
1.61327e-05
4.79751e-05
4.26124e-05
3.38918e-06
4.25397e-05
9.06255e-06
4.24814e-05
1.35516e-05
4.24631e-05
1.71326e-05
4.25041e-05
1.99945e-05
4.26225e-05
2.22711e-05
4.28378e-05
2.40572e-05
4.31713e-05
2.54157e-05
4.36433e-05
2.6382e-05
4.42697e-05
2.69693e-05
4.50568e-05
2.71769e-05
4.59955e-05
2.69999e-05
4.70573e-05
2.64404e-05
4.81942e-05
2.55176e-05
4.93422e-05
2.42726e-05
5.04308e-05
2.27686e-05
5.13943e-05
2.10841e-05
5.21825e-05
1.93034e-05
5.27677e-05
1.75053e-05
1.57552e-05
5.31452e-05
4.6409e-05
3.40451e-06
4.63897e-05
9.08187e-06
4.64012e-05
1.354e-05
4.64658e-05
1.7068e-05
4.66027e-05
1.98577e-05
4.68307e-05
2.20431e-05
4.71695e-05
2.37183e-05
4.76387e-05
2.49465e-05
4.82545e-05
2.57662e-05
4.90256e-05
2.61982e-05
4.99488e-05
2.62538e-05
5.10045e-05
2.59441e-05
5.21564e-05
2.52885e-05
5.33532e-05
2.43208e-05
5.45352e-05
2.30906e-05
5.56427e-05
2.16611e-05
5.6625e-05
2.01019e-05
5.74467e-05
1.84817e-05
5.80906e-05
1.68614e-05
1.52895e-05
5.85562e-05
5.0542e-05
3.39065e-06
5.05879e-05
9.03603e-06
5.06864e-05
1.34415e-05
5.08536e-05
1.69008e-05
5.11057e-05
1.96055e-05
5.14601e-05
2.16887e-05
5.19343e-05
2.32441e-05
5.25439e-05
2.43369e-05
5.32992e-05
2.50109e-05
5.42008e-05
2.52965e-05
5.52367e-05
2.52179e-05
5.63803e-05
2.48005e-05
5.75915e-05
2.40773e-05
5.88209e-05
2.30914e-05
6.00162e-05
2.18953e-05
6.11293e-05
2.0548e-05
6.21221e-05
1.91091e-05
6.297e-05
1.76337e-05
6.36625e-05
1.61689e-05
1.47508e-05
6.42013e-05
5.50409e-05
3.3445e-06
5.51636e-05
8.91337e-06
5.53659e-05
1.32391e-05
5.56542e-05
1.66125e-05
5.60389e-05
1.92209e-05
5.65327e-05
2.11949e-05
5.71486e-05
2.26281e-05
5.78967e-05
2.35888e-05
5.87801e-05
2.41276e-05
5.97921e-05
2.42845e-05
6.09143e-05
2.40957e-05
6.21162e-05
2.35986e-05
6.33584e-05
2.28352e-05
6.45965e-05
2.18533e-05
6.57871e-05
2.07047e-05
6.68929e-05
1.94422e-05
6.7886e-05
1.8116e-05
6.87495e-05
1.67702e-05
6.94773e-05
1.5441e-05
1.41562e-05
7.00719e-05
5.9938e-05
3.26274e-06
6.01489e-05
8.70241e-06
6.04711e-05
1.29169e-05
6.08971e-05
1.61865e-05
6.14279e-05
1.86901e-05
6.20692e-05
2.05536e-05
6.28273e-05
2.18701e-05
6.37053e-05
2.27108e-05
6.46999e-05
2.3133e-05
6.57984e-05
2.31859e-05
6.69789e-05
2.29152e-05
6.82108e-05
2.23667e-05
6.9458e-05
2.1588e-05
7.06832e-05
2.06281e-05
7.18522e-05
1.95357e-05
7.29368e-05
1.83576e-05
7.39173e-05
1.71355e-05
7.47826e-05
1.59049e-05
7.55292e-05
1.46945e-05
1.35253e-05
7.616e-05
6.52689e-05
3.1412e-06
6.55803e-05
8.3911e-06
6.60376e-05
1.24596e-05
6.66155e-05
1.56086e-05
6.73021e-05
1.80035e-05
6.80935e-05
1.97622e-05
6.89881e-05
2.09755e-05
6.99822e-05
2.17168e-05
7.10667e-05
2.20485e-05
7.22257e-05
2.20269e-05
7.34364e-05
2.17045e-05
7.46708e-05
2.11323e-05
7.58986e-05
2.03603e-05
7.70901e-05
1.94365e-05
7.82197e-05
1.84061e-05
7.92673e-05
1.731e-05
8.02193e-05
1.61834e-05
8.1069e-05
1.50553e-05
8.18149e-05
1.39485e-05
1.28799e-05
8.24603e-05
7.1074e-05
2.97356e-06
7.15003e-05
7.96482e-06
7.21087e-05
1.18512e-05
7.28509e-05
1.48664e-05
7.36993e-05
1.71551e-05
7.46387e-05
1.88228e-05
7.56591e-05
1.9955e-05
7.67508e-05
2.0625e-05
7.79011e-05
2.08983e-05
7.90931e-05
2.08349e-05
8.03059e-05
2.04916e-05
8.15163e-05
1.99219e-05
8.27007e-05
1.91759e-05
8.38373e-05
1.82999e-05
8.49082e-05
1.73353e-05
8.58998e-05
1.63184e-05
8.6804e-05
1.52792e-05
8.76171e-05
1.42422e-05
8.83394e-05
1.32262e-05
1.2245e-05
8.89744e-05
7.73995e-05
2.74845e-06
7.79615e-05
7.40276e-06
7.87398e-05
1.10729e-05
7.96582e-05
1.3948e-05
8.06718e-05
1.61415e-05
8.17537e-05
1.77409e-05
8.28862e-05
1.88226e-05
8.40547e-05
1.94565e-05
8.52451e-05
1.97079e-05
8.64415e-05
1.96384e-05
8.76274e-05
1.93058e-05
8.87856e-05
1.87637e-05
8.99e-05
1.80615e-05
9.09568e-05
1.72431e-05
9.19451e-05
1.6347e-05
9.28577e-05
1.54058e-05
9.36907e-05
1.44462e-05
9.44433e-05
1.34896e-05
9.51172e-05
1.25522e-05
1.16461e-05
9.5716e-05
8.43041e-05
2.44078e-06
8.5033e-05
6.67384e-06
8.60031e-05
1.01028e-05
8.71084e-05
1.28428e-05
8.82874e-05
1.49624e-05
8.95035e-05
1.65248e-05
9.07328e-05
1.75932e-05
9.19582e-05
1.8231e-05
9.31657e-05
1.85004e-05
9.43427e-05
1.84615e-05
9.54775e-05
1.8171e-05
9.65598e-05
1.76815e-05
9.75806e-05
1.70407e-05
9.85332e-05
1.62904e-05
9.94134e-05
1.54668e-05
0.000100219
1.46e-05
0.000100951
1.37147e-05
0.00010161
1.28302e-05
0.000102201
1.19614e-05
1.11194e-05
0.000102728
9.18699e-05
1.99251e-06
9.28065e-05
5.73724e-06
9.39885e-05
8.92076e-06
9.5286e-05
1.15453e-05
9.66258e-05
1.36227e-05
9.79633e-05
1.51873e-05
9.92702e-05
1.62863e-05
0.000100528
1.69733e-05
0.000101724
1.7304e-05
0.000102852
1.73343e-05
0.000103905
1.71177e-05
0.000104882
1.67046e-05
0.000105782
1.61405e-05
0.000106606
1.54661e-05
0.000107357
1.47161e-05
0.000108037
1.39197e-05
0.000108651
1.31007e-05
0.000109203
1.22782e-05
0.000109698
1.14667e-05
1.06774e-05
0.00011014
0.000100143
0.000101315
0.000102714
0.00010421
0.000105723
0.000107204
0.000108616
0.000109936
0.000111152
0.000112256
0.000113247
0.000114129
0.000114908
0.000115592
0.000116189
0.000116709
0.000117161
0.000117554
0.000117896
0.000118194
6.61334e-06
6.50888e-06
3.6681e-06
2.94524e-06
2.33827e-06
1.32984e-06
1.68791e-06
6.50359e-07
1.32849e-06
3.59416e-07
1.10183e-06
2.26661e-07
9.42825e-07
1.59006e-07
8.23277e-07
1.19548e-07
7.29465e-07
9.3812e-08
6.53754e-07
7.57112e-08
5.91473e-07
6.2281e-08
5.39628e-07
5.18443e-08
4.96291e-07
4.33371e-08
4.60277e-07
3.60147e-08
4.30977e-07
2.93001e-08
4.08272e-07
2.27041e-08
3.92393e-07
1.5879e-08
3.83794e-07
8.59966e-09
3.8121e-07
2.58335e-09
-1.80865e-09
1.41059e-05
1.01391e-05
1.05405e-05
6.51071e-06
7.88045e-06
3.98986e-06
6.06585e-06
2.46496e-06
4.84478e-06
1.58048e-06
4.00185e-06
1.06959e-06
3.39521e-06
7.65647e-07
2.94001e-06
5.74751e-07
2.5862e-06
4.47621e-07
2.30354e-06
3.58372e-07
2.0731e-06
2.92723e-07
1.88268e-06
2.42259e-07
1.72438e-06
2.01642e-07
1.59319e-06
1.67202e-07
1.48631e-06
1.36177e-07
1.40268e-06
1.06339e-07
1.34255e-06
7.60097e-08
1.30642e-06
4.47295e-08
1.29161e-06
1.73939e-08
2.91414e-10
1.95214e-05
1.22574e-05
1.65813e-05
9.45079e-06
1.36691e-05
6.90209e-06
1.12037e-05
4.93034e-06
9.26295e-06
3.52119e-06
7.7767e-06
2.55585e-06
6.63916e-06
1.90319e-06
5.75664e-06
1.45726e-06
5.05909e-06
1.14517e-06
4.49744e-06
9.20021e-07
4.03809e-06
7.52077e-07
3.65814e-06
6.22206e-07
3.34216e-06
5.17629e-07
3.08004e-06
4.29317e-07
2.8658e-06
3.50412e-07
2.69672e-06
2.75422e-07
2.5726e-06
2.00133e-07
2.49357e-06
1.23759e-07
2.45574e-06
5.52265e-08
1.34161e-08
2.42392e-05
1.36163e-05
2.20006e-05
1.16893e-05
1.93484e-05
9.55429e-06
1.67156e-05
7.5632e-06
1.43511e-05
5.88569e-06
1.23452e-05
4.56174e-06
1.06918e-05
3.55659e-06
9.34271e-06
2.80635e-06
8.24097e-06
2.24691e-06
7.33556e-06
1.82544e-06
6.58567e-06
1.50197e-06
5.96053e-06
1.24734e-06
5.43789e-06
1.04027e-06
5.00242e-06
8.6478e-07
4.64455e-06
7.08282e-07
4.35947e-06
5.60501e-07
4.14617e-06
4.13441e-07
4.00438e-06
2.65545e-07
3.92888e-06
1.30729e-07
4.63147e-08
2.87727e-05
1.45193e-05
2.71213e-05
1.33407e-05
2.4905e-05
1.17707e-05
2.24164e-05
1.00518e-05
1.9919e-05
8.38301e-06
1.75906e-05
6.89018e-06
1.55195e-05
5.62768e-06
1.37283e-05
4.59758e-06
1.22018e-05
3.77341e-06
1.09089e-05
3.11833e-06
9.81545e-06
2.5954e-06
8.89065e-06
2.17215e-06
8.10942e-06
1.8215e-06
7.45314e-06
1.52107e-06
6.9094e-06
1.25201e-06
6.47163e-06
9.98273e-07
6.13807e-06
7.47004e-07
5.90838e-06
4.95233e-07
5.77632e-06
2.62794e-07
1.10759e-07
3.33333e-05
1.5102e-05
3.21515e-05
1.45225e-05
3.03988e-05
1.35233e-05
2.82232e-05
1.22275e-05
2.58223e-05
1.07839e-05
2.33832e-05
9.32922e-06
2.1047e-05
7.96393e-06
1.88989e-05
6.7457e-06
1.6977e-05
5.6953e-06
1.52872e-05
4.80806e-06
1.38176e-05
4.06505e-06
1.25485e-05
3.44125e-06
1.14596e-05
2.91039e-06
1.05335e-05
2.44717e-06
9.75763e-06
2.02788e-06
9.12513e-06
1.63078e-06
8.63444e-06
1.23769e-06
8.28604e-06
8.43624e-07
8.07369e-06
4.75146e-07
2.22272e-07
3.80314e-05
1.54368e-05
3.72249e-05
1.5329e-05
3.59039e-05
1.48443e-05
3.4112e-05
1.40193e-05
3.19618e-05
1.29342e-05
2.96e-05
1.1691e-05
2.71723e-05
1.03917e-05
2.4798e-05
9.11994e-06
2.25605e-05
7.93288e-06
2.05077e-05
6.86079e-06
1.86609e-05
5.91188e-06
1.70233e-05
5.0789e-06
1.55887e-05
4.34494e-06
1.43481e-05
3.68777e-06
1.32936e-05
3.08242e-06
1.24211e-05
2.50321e-06
1.17316e-05
1.92717e-06
1.12283e-05
1.34698e-06
1.09068e-05
7.96686e-07
4.00886e-07
4.2919e-05
1.55671e-05
4.24201e-05
1.58279e-05
4.1483e-05
1.57815e-05
4.00889e-05
1.54133e-05
3.82776e-05
1.47455e-05
3.61371e-05
1.38316e-05
3.37832e-05
1.27456e-05
3.13365e-05
1.15666e-05
2.89034e-05
1.0366e-05
2.65662e-05
9.198e-06
2.43809e-05
8.09714e-06
2.23811e-05
7.07871e-06
2.05838e-05
6.14222e-06
1.89964e-05
5.27515e-06
1.76224e-05
4.45645e-06
1.64657e-05
3.65991e-06
1.55334e-05
2.85947e-06
1.48345e-05
2.04588e-06
1.43698e-05
1.26137e-06
6.71808e-07
4.80189e-05
1.55234e-05
4.77781e-05
1.60687e-05
4.71774e-05
1.63822e-05
4.61663e-05
1.64245e-05
4.47332e-05
1.61786e-05
4.29102e-05
1.56545e-05
4.07681e-05
1.48877e-05
3.84024e-05
1.39323e-05
3.59177e-05
1.28507e-05
3.34123e-05
1.17034e-05
3.09692e-05
1.05403e-05
2.86518e-05
9.39609e-06
2.65054e-05
8.28862e-06
2.45609e-05
7.21961e-06
2.28404e-05
6.17695e-06
2.13622e-05
5.1381e-06
2.0145e-05
4.07671e-06
1.92081e-05
2.98276e-06
1.85622e-05
1.9073e-06
1.06576e-06
5.33386e-05
1.533e-05
5.3317e-05
1.60903e-05
5.30089e-05
1.66902e-05
5.23514e-05
1.70819e-05
5.13024e-05
1.72276e-05
4.9851e-05
1.7106e-05
4.80216e-05
1.67171e-05
4.58718e-05
1.6082e-05
4.34835e-05
1.52391e-05
4.09503e-05
1.42366e-05
3.83662e-05
1.31244e-05
3.58162e-05
1.1946e-05
3.33722e-05
1.07327e-05
3.10918e-05
9.50006e-06
2.90212e-05
8.24753e-06
2.71997e-05
6.95962e-06
2.56637e-05
5.61268e-06
2.4449e-05
4.1975e-06
2.35817e-05
2.77457e-06
1.61867e-06
5.8877e-05
1.50093e-05
5.90407e-05
1.59266e-05
5.89844e-05
1.67465e-05
5.8644e-05
1.74224e-05
5.79626e-05
1.79089e-05
5.69013e-05
1.81673e-05
5.54469e-05
1.81715e-05
5.36169e-05
1.7912e-05
5.14588e-05
1.73972e-05
4.90441e-05
1.66512e-05
4.64597e-05
1.57088e-05
4.37977e-05
1.4608e-05
4.11473e-05
1.3383e-05
3.85902e-05
1.20572e-05
3.61985e-05
1.06393e-05
3.40366e-05
9.12145e-06
3.21648e-05
7.48447e-06
3.06412e-05
5.7211e-06
2.95144e-05
3.90142e-06
2.37025e-06
6.46273e-05
1.45833e-05
6.49447e-05
1.56092e-05
6.51007e-05
1.65905e-05
6.50361e-05
1.74871e-05
6.46905e-05
1.82544e-05
6.40103e-05
1.88475e-05
6.29565e-05
1.92253e-05
6.15127e-05
1.93558e-05
5.96899e-05
1.922e-05
5.75274e-05
1.88138e-05
5.50894e-05
1.81468e-05
5.24585e-05
1.72389e-05
4.97277e-05
1.61139e-05
4.69927e-05
1.47922e-05
4.43474e-05
1.32845e-05
4.1882e-05
1.15869e-05
3.96833e-05
9.68318e-06
3.78369e-05
7.56747e-06
3.64198e-05
5.3185e-06
3.36103e-06
7.05802e-05
1.4075e-05
7.102e-05
1.51694e-05
7.13486e-05
1.62619e-05
7.15151e-05
1.73206e-05
7.14625e-05
1.8307e-05
7.11329e-05
1.91772e-05
7.04731e-05
1.98851e-05
6.9443e-05
2.03859e-05
6.80223e-05
2.06407e-05
6.62162e-05
2.06198e-05
6.40576e-05
2.03054e-05
6.16056e-05
1.96909e-05
5.8941e-05
1.87785e-05
5.61599e-05
1.75732e-05
5.33678e-05
1.60767e-05
5.06744e-05
1.42803e-05
4.8192e-05
1.21656e-05
4.6035e-05
9.72447e-06
4.43122e-05
7.04122e-06
4.62738e-06
7.67261e-05
1.35089e-05
7.7256e-05
1.46394e-05
7.77167e-05
1.58012e-05
7.80665e-05
1.69708e-05
7.82559e-05
1.81176e-05
7.82294e-05
1.92037e-05
7.793e-05
2.01846e-05
7.73043e-05
2.10116e-05
7.63104e-05
2.16347e-05
7.49241e-05
2.20061e-05
7.31457e-05
2.20838e-05
7.10032e-05
2.18335e-05
6.85525e-05
2.12292e-05
6.58752e-05
2.02505e-05
6.30736e-05
1.88782e-05
6.02658e-05
1.70882e-05
5.75815e-05
1.48499e-05
5.51596e-05
1.21463e-05
5.31394e-05
9.06143e-06
6.1946e-06
8.30581e-05
1.29111e-05
8.36446e-05
1.40529e-05
8.41953e-05
1.52505e-05
8.46777e-05
1.64883e-05
8.50514e-05
1.77439e-05
8.5268e-05
1.89871e-05
8.52732e-05
2.01793e-05
8.50105e-05
2.12743e-05
8.44262e-05
2.2219e-05
8.34762e-05
2.29561e-05
8.21334e-05
2.34265e-05
8.03942e-05
2.35726e-05
7.82834e-05
2.334e-05
7.58559e-05
2.26781e-05
7.31962e-05
2.15379e-05
7.04154e-05
1.9869e-05
6.76468e-05
1.76185e-05
6.50427e-05
1.47504e-05
6.2764e-05
1.13401e-05
8.06873e-06
8.9575e-05
1.23105e-05
9.01822e-05
1.34458e-05
9.07785e-05
1.46542e-05
9.134e-05
1.59268e-05
9.18354e-05
1.72485e-05
9.22254e-05
1.85971e-05
9.24632e-05
1.99416e-05
9.24956e-05
2.12419e-05
9.22668e-05
2.24477e-05
9.17233e-05
2.34996e-05
9.08198e-05
2.433e-05
8.95274e-05
2.48651e-05
8.784e-05
2.50274e-05
8.57808e-05
2.47373e-05
8.34053e-05
2.39134e-05
8.08022e-05
2.24721e-05
7.80914e-05
2.03293e-05
7.54209e-05
1.74208e-05
7.29568e-05
1.38043e-05
1.02291e-05
9.62902e-05
1.17363e-05
9.68814e-05
1.28546e-05
9.74777e-05
1.40579e-05
9.80625e-05
1.5342e-05
9.86131e-05
1.66979e-05
9.90997e-05
1.81104e-05
9.94851e-05
1.95563e-05
9.97245e-05
2.10025e-05
9.97674e-05
2.24049e-05
9.95598e-05
2.37072e-05
9.90495e-05
2.48403e-05
9.81916e-05
2.57229e-05
9.69567e-05
2.62623e-05
9.53375e-05
2.63564e-05
9.3356e-05
2.58949e-05
9.10672e-05
2.4761e-05
8.85605e-05
2.28359e-05
8.59593e-05
2.0022e-05
8.34119e-05
1.63517e-05
1.26248e-05
0.000103236
1.12275e-05
0.000103767
1.23241e-05
0.000104312
1.35127e-05
0.000104861
1.47928e-05
0.000105399
1.61602e-05
0.000105905
1.7605e-05
0.00010635
1.91106e-05
0.000106702
2.0651e-05
0.000106918
2.2189e-05
0.000106951
2.3674e-05
0.000106751
2.50402e-05
0.000106268
2.62054e-05
0.00010546
2.70704e-05
0.000104297
2.75197e-05
0.000102769
2.74228e-05
0.000100893
2.66369e-05
9.87158e-05
2.50132e-05
9.63161e-05
2.24218e-05
9.38006e-05
1.88671e-05
1.51746e-05
0.000110567
1.08004e-05
0.000111012
1.18796e-05
0.000111469
1.30552e-05
0.000111933
1.43286e-05
0.000112395
1.56983e-05
0.000112842
1.71582e-05
0.000113257
1.8696e-05
0.000113617
2.02912e-05
0.000113893
2.19126e-05
0.000114051
2.35159e-05
0.00011405
2.50408e-05
0.000113847
2.64093e-05
0.000113394
2.75231e-05
0.00011265
2.82638e-05
0.00011158
2.84928e-05
0.000110162
2.80547e-05
0.000108391
2.67842e-05
0.000106285
2.45282e-05
0.000103895
2.12572e-05
1.7788e-05
0.000118481
0.000118787
0.000119111
0.000119451
0.000119805
0.000120165
0.000120522
0.000120863
0.000121168
0.000121414
0.000121567
0.000121588
0.000121432
0.000121047
0.000120378
0.000119368
0.000117959
0.000116096
0.000113722
)
;

boundaryField
{
    zeroGradient_plane
    {
        type            calculated;
        value           nonuniform List<scalar> 
80
(
1.35297e-06
4.5651e-06
7.52173e-06
1.00495e-05
1.21088e-05
1.3707e-05
1.48745e-05
1.56527e-05
1.60884e-05
1.62302e-05
1.61262e-05
1.58225e-05
1.53618e-05
1.47826e-05
1.41189e-05
1.33995e-05
1.26484e-05
1.18851e-05
1.11251e-05
1.03795e-05
1.05131e-05
1.15739e-05
1.27311e-05
1.39881e-05
1.53451e-05
1.67983e-05
1.83389e-05
1.99504e-05
2.16069e-05
2.32705e-05
2.48878e-05
2.63878e-05
2.76793e-05
2.8649e-05
2.91621e-05
2.90646e-05
2.81929e-05
2.6391e-05
2.36313e-05
2.07595e-05
3.83019e-07
1.28951e-06
2.44261e-06
3.89598e-06
5.71187e-06
7.96218e-06
1.07281e-05
1.40989e-05
1.81682e-05
2.30288e-05
2.87628e-05
3.5429e-05
4.30459e-05
5.15722e-05
6.08899e-05
7.07963e-05
8.10163e-05
9.12508e-05
0.000101281
0.00011075
-2.36818e-06
-7.54396e-06
-1.20034e-05
-1.57261e-05
-1.88138e-05
-2.1382e-05
-2.35331e-05
-2.5346e-05
-2.68722e-05
-2.81349e-05
-2.91286e-05
-2.98212e-05
-3.01575e-05
-3.00622e-05
-2.94418e-05
-2.81844e-05
-2.61563e-05
-2.31594e-05
-1.88069e-05
-1.2584e-05
)
;
    }
    inlet
    {
        type            calculated;
        value           nonuniform List<scalar> 
20
(
-1.99006e-05
-2.16598e-05
-2.35745e-05
-2.56584e-05
-2.79266e-05
-3.03953e-05
-3.30822e-05
-3.60066e-05
-3.91895e-05
-4.26538e-05
-4.64243e-05
-5.05282e-05
-5.49948e-05
-5.98562e-05
-6.51474e-05
-7.09063e-05
-7.71743e-05
-8.39964e-05
-9.14216e-05
-9.95031e-05
)
;
    }
    plate
    {
        type            calculated;
        value           uniform 0;
    }
    frontAndBack
    {
        type            empty;
        value           nonuniform 0();
    }
}


// ************************************************************************* //
