/*--------------------------------*- C++ -*----------------------------------*\
| =========                 |                                                 |
| \\      /  F ield         | OpenFOAM: The Open Source CFD Toolbox           |
|  \\    /   O peration     | Version:  v1906                                 |
|   \\  /    A nd           | Web:      www.OpenFOAM.com                      |
|    \\/     M anipulation  |                                                 |
\*---------------------------------------------------------------------------*/
FoamFile
{
    version     2.0;
    format      ascii;
    class       volVectorField;
    location    "0.45";
    object      U;
}
// * * * * * * * * * * * * * * * * * * * * * * * * * * * * * * * * * * * * * //

dimensions      [0 1 -1 0 0 0 0];


internalField   nonuniform List<vector> 
800
(
(0.997849 0.0243333 0)
(0.990618 0.0832394 0)
(0.982737 0.143703 0)
(0.975054 0.20463 0)
(0.967509 0.266243 0)
(0.960154 0.329178 0)
(0.952948 0.394196 0)
(0.945841 0.461996 0)
(0.938761 0.533046 0)
(0.931617 0.607392 0)
(0.924285 0.684443 0)
(0.916591 0.76274 0)
(0.90828 0.83972 0)
(0.898973 0.911446 0)
(0.888179 0.97225 0)
(0.874874 1.01423 0)
(0.85589 1.02666 0)
(0.829466 0.994472 0)
(0.811037 0.89088 0)
(0.782414 0.663197 0)
(0.997941 0.0254537 0)
(0.990851 0.0848043 0)
(0.983026 0.145449 0)
(0.975415 0.206499 0)
(0.967967 0.268229 0)
(0.960741 0.33129 0)
(0.953708 0.396454 0)
(0.946835 0.464429 0)
(0.940083 0.535695 0)
(0.933406 0.610314 0)
(0.926752 0.687719 0)
(0.920066 0.766494 0)
(0.913283 0.844136 0)
(0.906333 0.91681 0)
(0.899231 0.979035 0)
(0.891963 1.02323 0)
(0.88366 1.03939 0)
(0.874696 1.01491 0)
(0.873587 0.93019 0)
(0.864689 0.748137 0)
(0.99812 0.0268852 0)
(0.991327 0.0868609 0)
(0.983645 0.147751 0)
(0.976206 0.208952 0)
(0.968983 0.270821 0)
(0.962052 0.334024 0)
(0.955411 0.399343 0)
(0.949071 0.467488 0)
(0.943057 0.538942 0)
(0.937424 0.613764 0)
(0.932272 0.691382 0)
(0.927768 0.770363 0)
(0.924184 0.848169 0)
(0.921934 0.920899 0)
(0.921652 0.982985 0)
(0.924108 1.02679 0)
(0.929542 1.04239 0)
(0.937756 1.01814 0)
(0.948011 0.940252 0)
(0.943645 0.792016 0)
(0.998353 0.0282114 0)
(0.992006 0.0888518 0)
(0.984602 0.149989 0)
(0.977467 0.211321 0)
(0.970628 0.27329 0)
(0.964189 0.336579 0)
(0.958197 0.401966 0)
(0.952728 0.47015 0)
(0.947905 0.541582 0)
(0.943925 0.616278 0)
(0.941086 0.693586 0)
(0.93982 0.771951 0)
(0.940728 0.848644 0)
(0.944578 0.919507 0)
(0.952238 0.978704 0)
(0.96436 1.01857 0)
(0.98059 1.0299 0)
(0.998844 1.00337 0)
(1.01399 0.931679 0)
(1.01312 0.813096 0)
(0.998609 0.029453 0)
(0.992847 0.0908168 0)
(0.985892 0.152213 0)
(0.97923 0.213651 0)
(0.972964 0.275669 0)
(0.967248 0.338963 0)
(0.96219 0.404293 0)
(0.957954 0.472317 0)
(0.954786 0.543422 0)
(0.95304 0.617519 0)
(0.953211 0.693805 0)
(0.955948 0.770511 0)
(0.962039 0.84465 0)
(0.972304 0.911819 0)
(0.98736 0.966146 0)
(1.00714 1.00055 0)
(1.03015 1.00762 0)
(1.05294 0.981425 0)
(1.06965 0.91983 0)
(1.07184 0.827079 0)
(0.998871 0.0306282 0)
(0.993813 0.0927797 0)
(0.987503 0.154449 0)
(0.981513 0.215961 0)
(0.976042 0.277956 0)
(0.971303 0.341137 0)
(0.967484 0.406226 0)
(0.964849 0.473813 0)
(0.963766 0.544173 0)
(0.964736 0.617059 0)
(0.968397 0.691464 0)
(0.975499 0.765378 0)
(0.986805 0.835604 0)
(1.0029 0.897705 0)
(1.02382 0.946203 0)
(1.04867 0.975193 0)
(1.07509 0.97948 0)
(1.09924 0.956158 0)
(1.11616 0.906075 0)
(1.12084 0.834685 0)
(0.999123 0.0317021 0)
(0.994872 0.0946706 0)
(0.989411 0.156607 0)
(0.984317 0.218141 0)
(0.979884 0.280006 0)
(0.976392 0.342906 0)
(0.974117 0.407503 0)
(0.973417 0.474282 0)
(0.974767 0.543368 0)
(0.978765 0.614322 0)
(0.986102 0.685917 0)
(0.997481 0.755954 0)
(1.01345 0.821184 0)
(1.03416 0.877425 0)
(1.05905 0.919981 0)
(1.08656 0.944402 0)
(1.11402 0.947531 0)
(1.13795 0.928548 0)
(1.15475 0.889578 0)
(1.16163 0.83553 0)
(0.999356 0.0326315 0)
(0.99599 0.0963893 0)
(0.991583 0.158554 0)
(0.987619 0.220025 0)
(0.984476 0.281616 0)
(0.982499 0.344015 0)
(0.982042 0.4078 0)
(0.983543 0.473322 0)
(0.987541 0.540533 0)
(0.994661 0.608795 0)
(1.00554 0.676706 0)
(1.0207 0.741992 0)
(1.04037 0.801556 0)
(1.06424 0.851741 0)
(1.09126 0.888847 0)
(1.11957 0.909848 0)
(1.14664 0.913147 0)
(1.16972 0.899107 0)
(1.18639 0.870105 0)
(1.19517 0.830036 0)
(0.999566 0.0333794 0)
(0.997137 0.0978281 0)
(0.993971 0.160136 0)
(0.991367 0.221424 0)
(0.989757 0.282554 0)
(0.989537 0.34418 0)
(0.991118 0.40678 0)
(0.99498 0.470551 0)
(1.00168 0.535271 0)
(1.01178 0.600137 0)
(1.02578 0.663654 0)
(1.04395 0.723624 0)
(1.06616 0.777297 0)
(1.09173 0.821705 0)
(1.11938 0.854165 0)
(1.14724 0.872835 0)
(1.17319 0.877152 0)
(1.1952 0.868003 0)
(1.21173 0.847539 0)
(1.22201 0.818687 0)
(0.999751 0.0339124 0)
(0.998289 0.0988702 0)
(0.996519 0.161178 0)
(0.995482 0.222115 0)
(0.995619 0.282557 0)
(0.997346 0.343103 0)
(1.0011 0.404114 0)
(1.00735 0.465638 0)
(1.01662 0.527301 0)
(1.02935 0.588198 0)
(1.04584 0.646853 0)
(1.06609 0.701284 0)
(1.08968 0.749215 0)
(1.11574 0.788412 0)
(1.1429 0.81709 0)
(1.16955 0.834271 0)
(1.19402 0.839991 0)
(1.21487 0.835272 0)
(1.23117 0.821886 0)
(1.24252 0.801984 0)
(0.999914 0.0341983 0)
(0.999423 0.0993906 0)
(0.999164 0.161487 0)
(0.999857 0.221854 0)
(1.0019 0.281344 0)
(1.00569 0.340479 0)
(1.01164 0.399502 0)
(1.02019 0.458329 0)
(1.03174 0.51648 0)
(1.04658 0.573029 0)
(1.06481 0.626624 0)
(1.0862 0.6756 0)
(1.11015 0.718204 0)
(1.13572 0.752878 0)
(1.16167 0.778542 0)
(1.18666 0.794794 0)
(1.20946 0.801964 0)
(1.22911 0.801017 0)
(1.24503 0.793346 0)
(1.25702 0.780521 0)
(1.00006 0.0342057 0)
(1.00052 0.0992599 0)
(1.00184 0.160859 0)
(1.00437 0.220386 0)
(1.0084 0.278631 0)
(1.01428 0.336028 0)
(1.02235 0.392705 0)
(1.03295 0.448478 0)
(1.04636 0.502822 0)
(1.06271 0.554866 0)
(1.08191 0.603461 0)
(1.10359 0.647307 0)
(1.12708 0.685149 0)
(1.15147 0.71599 0)
(1.17573 0.73926 0)
(1.19882 0.754904 0)
(1.21987 0.763363 0)
(1.23823 0.765473 0)
(1.25356 0.762302 0)
(1.26578 0.754999 0)
(1.00019 0.0339037 0)
(1.00157 0.0983494 0)
(1.00448 0.15909 0)
(1.00888 0.217459 0)
(1.01491 0.274158 0)
(1.0228 0.329516 0)
(1.03278 0.383567 0)
(1.0451 0.436063 0)
(1.05988 0.486488 0)
(1.07711 0.534091 0)
(1.09657 0.577963 0)
(1.11782 0.617165 0)
(1.14022 0.650873 0)
(1.16297 0.678515 0)
(1.18525 0.699864 0)
(1.20631 0.715054 0)
(1.22554 0.724543 0)
(1.24253 0.729021 0)
(1.25706 0.729302 0)
(1.2691 0.726231 0)
(1.0003 0.0332607 0)
(1.00257 0.0965332 0)
(1.00704 0.155982 0)
(1.01328 0.212844 0)
(1.02122 0.267703 0)
(1.03095 0.320782 0)
(1.04257 0.372034 0)
(1.05619 0.421184 0)
(1.07181 0.467769 0)
(1.08932 0.511188 0)
(1.10844 0.550779 0)
(1.12871 0.585919 0)
(1.14956 0.616125 0)
(1.17037 0.641129 0)
(1.19052 0.660915 0)
(1.20948 0.675712 0)
(1.22683 0.685947 0)
(1.24232 0.69218 0)
(1.25583 0.695034 0)
(1.26736 0.695138 0)
(1.00042 0.0322397 0)
(1.00354 0.0936832 0)
(1.0095 0.151349 0)
(1.01751 0.206339 0)
(1.0272 0.259101 0)
(1.03852 0.309743 0)
(1.05143 0.358152 0)
(1.06591 0.404052 0)
(1.08187 0.447052 0)
(1.09913 0.486705 0)
(1.1174 0.52257 0)
(1.13627 0.55428 0)
(1.15528 0.581599 0)
(1.17397 0.604462 0)
(1.19189 0.622978 0)
(1.2087 0.63741 0)
(1.22411 0.648143 0)
(1.23799 0.655628 0)
(1.25027 0.660349 0)
(1.26096 0.662781 0)
(1.00054 0.0307927 0)
(1.0045 0.0896619 0)
(1.01192 0.14501 0)
(1.02157 0.197774 0)
(1.03283 0.248238 0)
(1.04545 0.296391 0)
(1.05927 0.342055 0)
(1.07418 0.38496 0)
(1.09002 0.424788 0)
(1.10658 0.461222 0)
(1.12361 0.493996 0)
(1.14078 0.522928 0)
(1.15776 0.547952 0)
(1.17421 0.569127 0)
(1.18985 0.586628 0)
(1.20446 0.600728 0)
(1.21787 0.611764 0)
(1.23002 0.62011 0)
(1.24087 0.626148 0)
(1.25045 0.630247 0)
(1.00069 0.0288531 0)
(1.00556 0.0843265 0)
(1.01443 0.136817 0)
(1.02562 0.187046 0)
(1.03823 0.235098 0)
(1.05185 0.280822 0)
(1.06623 0.323971 0)
(1.08117 0.364273 0)
(1.09649 0.401464 0)
(1.112 0.435326 0)
(1.12749 0.465714 0)
(1.14274 0.492565 0)
(1.15753 0.515916 0)
(1.17165 0.535891 0)
(1.18495 0.552693 0)
(1.19731 0.566583 0)
(1.20865 0.577858 0)
(1.21894 0.586832 0)
(1.2282 0.593815 0)
(1.23645 0.599104 0)
(1.00093 0.0262471 0)
(1.00691 0.0774058 0)
(1.01726 0.126569 0)
(1.02988 0.174094 0)
(1.04361 0.219788 0)
(1.05794 0.263319 0)
(1.07255 0.304347 0)
(1.08721 0.342567 0)
(1.10174 0.377737 0)
(1.11597 0.409692 0)
(1.12978 0.438355 0)
(1.14302 0.463734 0)
(1.15558 0.485922 0)
(1.16736 0.50508 0)
(1.1783 0.52142 0)
(1.18836 0.535191 0)
(1.19752 0.546662 0)
(1.20581 0.556104 0)
(1.21326 0.56378 0)
(1.21991 0.569941 0)
(1.00141 0.0222314 0)
(1.00889 0.0676957 0)
(1.02076 0.112992 0)
(1.03464 0.157725 0)
(1.04923 0.201291 0)
(1.06396 0.243131 0)
(1.0785 0.282778 0)
(1.09258 0.319857 0)
(1.10604 0.35409 0)
(1.11879 0.385299 0)
(1.13074 0.4134 0)
(1.14187 0.438404 0)
(1.15215 0.460398 0)
(1.1616 0.479537 0)
(1.17022 0.496021 0)
(1.17806 0.510081 0)
(1.18514 0.521963 0)
(1.19152 0.531915 0)
(1.19725 0.540178 0)
(1.20237 0.546978 0)
(1.00205 0.015625 0)
(1.01118 0.0539722 0)
(1.02439 0.094849 0)
(1.03928 0.13646 0)
(1.05459 0.177668 0)
(1.06975 0.217686 0)
(1.08436 0.25594 0)
(1.09816 0.292003 0)
(1.11095 0.325564 0)
(1.12264 0.356416 0)
(1.1332 0.384446 0)
(1.14263 0.40963 0)
(1.15098 0.43202 0)
(1.15833 0.451728 0)
(1.16476 0.468915 0)
(1.17037 0.483774 0)
(1.17525 0.496516 0)
(1.17949 0.507362 0)
(1.18318 0.516528 0)
(1.18638 0.524223 0)
(0.424053 0.234856 0)
(0.242661 0.0804816 0)
(0.141758 0.0267902 0)
(0.0956311 0.00935523 0)
(0.0730351 0.00376731 0)
(0.0595888 0.00189926 0)
(0.0504748 0.00118008 0)
(0.0437812 0.000827928 0)
(0.0385963 0.000614269 0)
(0.034445 0.000468212 0)
(0.0310485 0.000362241 0)
(0.0282289 0.000282331 0)
(0.0258702 0.000219969 0)
(0.0238987 0.000169497 0)
(0.0222718 0.00012692 0)
(0.0209741 8.92809e-05 0)
(0.0200062 5.49259e-05 0)
(0.0194094 2.24262e-05 0)
(0.0191251 6.87451e-07 0)
(0.0192306 -1.47057e-05 0)
(0.7331 0.443155 0)
(0.56298 0.224737 0)
(0.414539 0.108176 0)
(0.312682 0.0536156 0)
(0.245719 0.0286095 0)
(0.200228 0.0167715 0)
(0.168079 0.0107343 0)
(0.144392 0.00733773 0)
(0.126238 0.00524729 0)
(0.111883 0.00386991 0)
(0.100264 0.00291476 0)
(0.0907033 0.0022243 0)
(0.0827604 0.00170596 0)
(0.0761512 0.0013017 0)
(0.0707035 0.000973138 0)
(0.0663363 0.000693964 0)
(0.0630272 0.00044777 0)
(0.0608576 0.000227762 0)
(0.0596792 6.58941e-05 0)
(0.059654 -2.59986e-05 0)
(0.88138 0.575214 0)
(0.767505 0.376094 0)
(0.636582 0.232345 0)
(0.520289 0.141437 0)
(0.427475 0.0872215 0)
(0.356124 0.0555738 0)
(0.301739 0.0369036 0)
(0.259905 0.0255028 0)
(0.227135 0.0182301 0)
(0.200954 0.0133853 0)
(0.179672 0.0100269 0)
(0.162136 0.00761229 0)
(0.147565 0.00581447 0)
(0.135436 0.0044268 0)
(0.125421 0.00331301 0)
(0.11735 0.00238098 0)
(0.111156 0.00157141 0)
(0.106932 0.000864515 0)
(0.104458 0.000323257 0)
(0.103943 3.37034e-05 0)
(0.978682 0.658205 0)
(0.905714 0.496868 0)
(0.805588 0.355065 0)
(0.69918 0.245652 0)
(0.600443 0.167759 0)
(0.515234 0.114968 0)
(0.444489 0.0799759 0)
(0.386721 0.0567821 0)
(0.339661 0.0411862 0)
(0.301129 0.0304632 0)
(0.269329 0.0228962 0)
(0.242882 0.0174058 0)
(0.220775 0.0133034 0)
(0.202294 0.0101387 0)
(0.186966 0.00760851 0)
(0.174526 0.00550586 0)
(0.164859 0.00369503 0)
(0.158053 0.00212983 0)
(0.153835 0.000906786 0)
(0.152445 0.000242335 0)
(1.05204 0.712371 0)
(1.00555 0.58512 0)
(0.933711 0.459002 0)
(0.846657 0.347679 0)
(0.755377 0.257323 0)
(0.667938 0.188272 0)
(0.588892 0.137545 0)
(0.51993 0.10106 0)
(0.460933 0.0749868 0)
(0.410911 0.0562727 0)
(0.368615 0.0426774 0)
(0.332846 0.0326265 0)
(0.302597 0.0250313 0)
(0.277088 0.0191387 0)
(0.255769 0.0144221 0)
(0.238312 0.0105126 0)
(0.224568 0.00716285 0)
(0.214621 0.00428075 0)
(0.208171 0.00199667 0)
(0.205495 0.000702732 0)
(1.11027 0.748259 0)
(1.08132 0.648905 0)
(1.03195 0.542583 0)
(0.965568 0.439309 0)
(0.888499 0.346592 0)
(0.807489 0.268417 0)
(0.728078 0.205578 0)
(0.653942 0.156733 0)
(0.586973 0.119542 0)
(0.527749 0.0914937 0)
(0.476056 0.0703505 0)
(0.431302 0.0542987 0)
(0.392787 0.0419457 0)
(0.359873 0.0322505 0)
(0.332056 0.024443 0)
(0.30902 0.0179611 0)
(0.290625 0.012417 0)
(0.276974 0.00765059 0)
(0.267777 0.00382583 0)
(0.263383 0.00155061 0)
(1.15757 0.770416 0)
(1.14067 0.69364 0)
(1.10823 0.606996 0)
(1.06029 0.51668 0)
(0.999483 0.428932 0)
(0.930024 0.348696 0)
(0.856575 0.278939 0)
(0.783261 0.220674 0)
(0.713151 0.173429 0)
(0.648166 0.135873 0)
(0.589269 0.106336 0)
(0.536748 0.0831619 0)
(0.4905 0.064886 0)
(0.450254 0.0502917 0)
(0.415727 0.0384074 0)
(0.386728 0.0284821 0)
(0.363202 0.0199752 0)
(0.345329 0.0126427 0)
(0.33287 0.00668299 0)
(0.326316 0.00296349 0)
(1.1959 0.781453 0)
(1.18756 0.722881 0)
(1.16771 0.654096 0)
(1.13502 0.578431 0)
(1.08983 0.500154 0)
(1.03404 0.423585 0)
(0.970665 0.352319 0)
(0.903146 0.288751 0)
(0.834728 0.233989 0)
(0.768059 0.188057 0)
(0.705036 0.15024 0)
(0.646854 0.11943 0)
(0.59416 0.094393 0)
(0.547245 0.0739402 0)
(0.50622 0.0570127 0)
(0.471165 0.0427255 0)
(0.442215 0.0304045 0)
(0.419701 0.0197212 0)
(0.403508 0.0109143 0)
(0.394355 0.00516843 0)
(1.22629 0.783115 0)
(1.22414 0.739235 0)
(1.21364 0.685964 0)
(1.19307 0.624776 0)
(1.16162 0.558145 0)
(1.11954 0.489167 0)
(1.06824 0.42104 0)
(1.00996 0.356547 0)
(0.947355 0.297715 0)
(0.88309 0.245679 0)
(0.819516 0.200749 0)
(0.758498 0.162607 0)
(0.701395 0.130528 0)
(0.649142 0.103585 0)
(0.602375 0.0808094 0)
(0.561577 0.0612903 0)
(0.527193 0.0442798 0)
(0.499807 0.0293905 0)
(0.479496 0.0169188 0)
(0.467347 0.00844771 0)
(1.24937 0.776711 0)
(1.25169 0.744682 0)
(1.24809 0.704552 0)
(1.23692 0.65669 0)
(1.2169 0.60224 0)
(1.18737 0.543059 0)
(1.14849 0.481476 0)
(1.10127 0.419959 0)
(1.04744 0.360755 0)
(0.989113 0.305619 0)
(0.928568 0.255672 0)
(0.867936 0.21139 0)
(0.809066 0.172707 0)
(0.753459 0.139163 0)
(0.70231 0.110063 0)
(0.656587 0.0846212 0)
(0.617152 0.0621157 0)
(0.584935 0.0421565 0)
(0.560286 0.0251331 0)
(0.544824 0.0131401 0)
(1.26561 0.763382 0)
(1.27107 0.740857 0)
(1.27247 0.711643 0)
(1.26841 0.675506 0)
(1.25752 0.632724 0)
(1.23874 0.584153 0)
(1.21147 0.53119 0)
(1.17575 0.475625 0)
(1.13233 0.41941 0)
(1.08253 0.364402 0)
(1.02813 0.312137 0)
(0.971089 0.263685 0)
(0.913412 0.219611 0)
(0.856952 0.180009 0)
(0.803358 0.144602 0)
(0.754083 0.112879 0)
(0.710451 0.0842683 0)
(0.673813 0.0584625 0)
(0.64485 0.0359999 0)
(0.625899 0.0196333 0)
(1.27541 0.744225 0)
(1.28296 0.729243 0)
(1.28786 0.708927 0)
(1.28897 0.682763 0)
(1.28508 0.650522 0)
(1.27504 0.612366 0)
(1.25787 0.568904 0)
(1.23302 0.521179 0)
(1.20042 0.470572 0)
(1.16059 0.418644 0)
(1.11458 0.366937 0)
(1.0639 0.316793 0)
(1.01033 0.26921 0)
(0.955767 0.224778 0)
(0.902106 0.183688 0)
(0.851168 0.145803 0)
(0.804701 0.110815 0)
(0.764485 0.0785999 0)
(0.731557 0.0499151 0)
(0.709158 0.0283434 0)
(1.2792 0.720368 0)
(1.28796 0.711281 0)
(1.29511 0.698075 0)
(1.2998 0.680143 0)
(1.30102 0.657007 0)
(1.2977 0.628408 0)
(1.2888 0.594388 0)
(1.27345 0.555342 0)
(1.25106 0.512023 0)
(1.2215 0.465483 0)
(1.18511 0.416961 0)
(1.14276 0.367728 0)
(1.09575 0.318935 0)
(1.04573 0.271486 0)
(0.994562 0.225957 0)
(0.944217 0.182598 0)
(0.896733 0.141434 0)
(0.85424 0.102601 0)
(0.818083 0.0671525 0)
(0.792569 0.0396741 0)
(1.2774 0.692994 0)
(1.28666 0.688427 0)
(1.29507 0.680778 0)
(1.30199 0.669453 0)
(1.30666 0.653887 0)
(1.30818 0.633608 0)
(1.3056 0.608306 0)
(1.29797 0.577906 0)
(1.28446 0.542611 0)
(1.2645 0.502925 0)
(1.23788 0.459615 0)
(1.20482 0.413635 0)
(1.16606 0.366007 0)
(1.12276 0.317691 0)
(1.07648 0.269474 0)
(1.0291 0.221899 0)
(0.982714 0.175308 0)
(0.939635 0.130133 0)
(0.901392 0.0877719 0)
(0.873453 0.0539568 0)
(1.27053 0.663391 0)
(1.2797 0.662216 0)
(1.28852 0.658805 0)
(1.29657 0.652631 0)
(1.30328 0.643137 0)
(1.30795 0.62978 0)
(1.3098 0.61207 0)
(1.30796 0.589636 0)
(1.30155 0.562284 0)
(1.28981 0.530041 0)
(1.27215 0.493182 0)
(1.24834 0.452218 0)
(1.21852 0.407836 0)
(1.18332 0.360819 0)
(1.14382 0.311934 0)
(1.10155 0.261846 0)
(1.05844 0.211112 0)
(1.0167 0.160424 0)
(0.977865 0.11153 0)
(0.948572 0.0713755 0)
(1.25918 0.632854 0)
(1.26775 0.634169 0)
(1.2763 0.633917 0)
(1.28455 0.631653 0)
(1.29211 0.626877 0)
(1.29848 0.619053 0)
(1.30304 0.607633 0)
(1.30508 0.592096 0)
(1.30381 0.571998 0)
(1.29846 0.547025 0)
(1.28829 0.517035 0)
(1.27276 0.48209 0)
(1.25161 0.442456 0)
(1.22494 0.398574 0)
(1.19332 0.350994 0)
(1.15778 0.300303 0)
(1.11983 0.247113 0)
(1.08136 0.192268 0)
(1.04363 0.137815 0)
(1.01438 0.0918694 0)
(1.24406 0.603137 0)
(1.25165 0.606238 0)
(1.25939 0.608268 0)
(1.2671 0.608866 0)
(1.27453 0.607605 0)
(1.28134 0.603999 0)
(1.2871 0.597513 0)
(1.29126 0.587581 0)
(1.29321 0.57364 0)
(1.29226 0.555165 0)
(1.28769 0.53172 0)
(1.27886 0.502999 0)
(1.26526 0.468859 0)
(1.24665 0.429342 0)
(1.2231 0.384656 0)
(1.19511 0.335152 0)
(1.16367 0.28133 0)
(1.13009 0.224048 0)
(1.09514 0.16554 0)
(1.06753 0.114943 0)
(1.22609 0.575019 0)
(1.23229 0.579433 0)
(1.23873 0.583147 0)
(1.24528 0.585863 0)
(1.2518 0.587221 0)
(1.25807 0.586792 0)
(1.26381 0.584078 0)
(1.26865 0.578522 0)
(1.27212 0.569519 0)
(1.27371 0.556442 0)
(1.27281 0.538678 0)
(1.26883 0.515669 0)
(1.26118 0.486958 0)
(1.24942 0.452235 0)
(1.2333 0.41136 0)
(1.21285 0.364386 0)
(1.1885 0.311603 0)
(1.16085 0.253763 0)
(1.13003 0.193143 0)
(1.10559 0.13965 0)
(1.20713 0.552758 0)
(1.21191 0.558002 0)
(1.21686 0.562745 0)
(1.22192 0.566739 0)
(1.22702 0.569681 0)
(1.23203 0.571197 0)
(1.23679 0.57085 0)
(1.24108 0.568126 0)
(1.24463 0.562448 0)
(1.24708 0.553182 0)
(1.24803 0.539661 0)
(1.24699 0.521216 0)
(1.24347 0.497216 0)
(1.23697 0.467119 0)
(1.22705 0.430518 0)
(1.2134 0.387193 0)
(1.1959 0.337191 0)
(1.17439 0.281038 0)
(1.14835 0.220841 0)
(1.12811 0.166953 0)
(1.18931 0.530915 0)
(1.19229 0.537168 0)
(1.19545 0.543085 0)
(1.1988 0.548453 0)
(1.20231 0.553009 0)
(1.20591 0.556432 0)
(1.20954 0.558334 0)
(1.21309 0.558255 0)
(1.21639 0.555661 0)
(1.21922 0.549944 0)
(1.22129 0.54043 0)
(1.22225 0.526402 0)
(1.22166 0.507129 0)
(1.21903 0.481908 0)
(1.2138 0.45012 0)
(1.20543 0.411304 0)
(1.19332 0.365256 0)
(1.1766 0.312297 0)
(1.15437 0.254471 0)
(1.13767 0.202254 0)
)
;

boundaryField
{
    zeroGradient_plane
    {
        type            zeroGradient;
    }
    inlet
    {
        type            fixedValue;
        value           uniform (1 0 0);
    }
    plate
    {
        type            noSlip;
    }
    frontAndBack
    {
        type            empty;
    }
}


// ************************************************************************* //
