/*--------------------------------*- C++ -*----------------------------------*\
| =========                 |                                                 |
| \\      /  F ield         | OpenFOAM: The Open Source CFD Toolbox           |
|  \\    /   O peration     | Version:  v1906                                 |
|   \\  /    A nd           | Web:      www.OpenFOAM.com                      |
|    \\/     M anipulation  |                                                 |
\*---------------------------------------------------------------------------*/
FoamFile
{
    version     2.0;
    format      ascii;
    class       volScalarField;
    location    "0.3";
    object      p;
}
// * * * * * * * * * * * * * * * * * * * * * * * * * * * * * * * * * * * * * //

dimensions      [0 2 -2 0 0 0 0];


internalField   nonuniform List<scalar> 
800
(
7.49318e-08
0.00935667
0.022238
0.035116
0.0489024
0.0635229
0.0792746
0.0965143
0.11575
0.137695
0.163348
0.194119
0.231983
0.279868
0.342386
0.423951
0.526762
0.696267
1.07065
1.22488
-0.00633397
0.0013613
0.0133272
0.0254399
0.0384582
0.0521889
0.0668566
0.0827243
0.100167
0.11969
0.14195
0.167783
0.198166
0.234148
0.276891
0.325327
0.369161
0.404352
0.454471
0.276246
-0.0180981
-0.0129585
-0.0025339
0.00828075
0.0199425
0.0321179
0.04489
0.0583572
0.0726574
0.0879278
0.104244
0.121498
0.139148
0.15576
0.168432
0.170846
0.148997
0.0863392
-0.0295392
-0.278731
-0.0316761
-0.0285436
-0.0196024
-0.0101239
7.94057e-05
0.0105624
0.0212512
0.0320624
0.0428722
0.0534295
0.063229
0.0713146
0.0759656
0.0742614
0.0616407
0.0312053
-0.0268869
-0.122292
-0.263792
-0.472987
-0.0470045
-0.0452891
-0.0377447
-0.0296273
-0.0209778
-0.0123307
-0.0039206
0.00398078
0.0109881
0.0164885
0.0194944
0.0184545
0.0110321
-0.00608508
-0.0372096
-0.0874821
-0.162138
-0.264508
-0.395952
-0.55737
-0.0646086
-0.0639038
-0.0577367
-0.0510527
-0.044101
-0.0374873
-0.0316021
-0.0268983
-0.0239958
-0.023795
-0.0276008
-0.037237
-0.0551099
-0.0841414
-0.127484
-0.188005
-0.267446
-0.365299
-0.478614
-0.601979
-0.0847391
-0.084711
-0.0799038
-0.0747247
-0.0696065
-0.0652062
-0.062049
-0.0607398
-0.0620707
-0.0671105
-0.0772711
-0.0943223
-0.120308
-0.157316
-0.207079
-0.270473
-0.346966
-0.434214
-0.528194
-0.623563
-0.10752
-0.107874
-0.104388
-0.100767
-0.0975853
-0.0955273
-0.0952152
-0.0973529
-0.102816
-0.112699
-0.128315
-0.151125
-0.182567
-0.22378
-0.275265
-0.336563
-0.406052
-0.480984
-0.557841
-0.632821
-0.133057
-0.133553
-0.13133
-0.1293
-0.128118
-0.128465
-0.131009
-0.136485
-0.145751
-0.159792
-0.179668
-0.206391
-0.240744
-0.283049
-0.332965
-0.389362
-0.450355
-0.51351
-0.57621
-0.636019
-0.161436
-0.161898
-0.160862
-0.160429
-0.161257
-0.163992
-0.169283
-0.177823
-0.19036
-0.207669
-0.230471
-0.259311
-0.294403
-0.335499
-0.381807
-0.43201
-0.484394
-0.537073
-0.588259
-0.636464
-0.192704
-0.19301
-0.19307
-0.194207
-0.196996
-0.202007
-0.209814
-0.220994
-0.236118
-0.255698
-0.280107
-0.309482
-0.343632
-0.38199
-0.423615
-0.467282
-0.511618
-0.555274
-0.597089
-0.636182
-0.226848
-0.226928
-0.227974
-0.230616
-0.235253
-0.242341
-0.252322
-0.265608
-0.282555
-0.303407
-0.328235
-0.356879
-0.388911
-0.423646
-0.460188
-0.497526
-0.534644
-0.570632
-0.604764
-0.63653
-0.263791
-0.263611
-0.265522
-0.269565
-0.275883
-0.284773
-0.296508
-0.311309
-0.329312
-0.350528
-0.374801
-0.401791
-0.430978
-0.461691
-0.493175
-0.524663
-0.555445
-0.584935
-0.612698
-0.638453
-0.303368
-0.302919
-0.305576
-0.310891
-0.318685
-0.32906
-0.342101
-0.357833
-0.376196
-0.39702
-0.420011
-0.444751
-0.470722
-0.497349
-0.524045
-0.550264
-0.575542
-0.599518
-0.621948
-0.642689
-0.345303
-0.344599
-0.347907
-0.354369
-0.363434
-0.374981
-0.388905
-0.405051
-0.423205
-0.443078
-0.464309
-0.486478
-0.509128
-0.531805
-0.554088
-0.575614
-0.596101
-0.615349
-0.633239
-0.64972
-0.389163
-0.38823
-0.392149
-0.399696
-0.409894
-0.422378
-0.436862
-0.45304
-0.470584
-0.489148
-0.508367
-0.527868
-0.547291
-0.566309
-0.584645
-0.602078
-0.618452
-0.633673
-0.647701
-0.660534
-0.434283
-0.433141
-0.437709
-0.446381
-0.457706
-0.471056
-0.485978
-0.502039
-0.518832
-0.535978
-0.553131
-0.569983
-0.586276
-0.601807
-0.616432
-0.630061
-0.642652
-0.654201
-0.664738
-0.674313
-0.479843
-0.478712
-0.484172
-0.494154
-0.50669
-0.520909
-0.536243
-0.552196
-0.568344
-0.584329
-0.599856
-0.614684
-0.628633
-0.641574
-0.653433
-0.664181
-0.673829
-0.682419
-0.690017
-0.696692
-0.524872
-0.525208
-0.532908
-0.545172
-0.559552
-0.574957
-0.59072
-0.606295
-0.621257
-0.635304
-0.648244
-0.659975
-0.670473
-0.679768
-0.687933
-0.695065
-0.701271
-0.706661
-0.711339
-0.715422
-0.563224
-0.567223
-0.579268
-0.595836
-0.614311
-0.633533
-0.652785
-0.671444
-0.688991
-0.705033
-0.719306
-0.731665
-0.74207
-0.750569
-0.757275
-0.76235
-0.76598
-0.768371
-0.769724
-0.770166
-1.25719
-2.31596
-2.27502
-2.04875
-1.85448
-1.70195
-1.58318
-1.48931
-1.41296
-1.34919
-1.29481
-1.24767
-1.20629
-1.16962
-1.13695
-1.10787
-1.08236
-1.06055
-1.04461
-1.03267
-0.871334
-1.54466
-1.7195
-1.71838
-1.66225
-1.58669
-1.51037
-1.44076
-1.37907
-1.32472
-1.27669
-1.23404
-1.19595
-1.16179
-1.13111
-1.10366
-1.07957
-1.05895
-1.04396
-1.03247
-0.773784
-1.17284
-1.38299
-1.47117
-1.49022
-1.46986
-1.43095
-1.38573
-1.34001
-1.29633
-1.25566
-1.21823
-1.18396
-1.15269
-1.12428
-1.09869
-1.07615
-1.05682
-1.0429
-1.03198
-0.753554
-1.01398
-1.19464
-1.29952
-1.3496
-1.36212
-1.35127
-1.32744
-1.29728
-1.26472
-1.23203
-1.20039
-1.1704
-1.14238
-1.1165
-1.09292
-1.07205
-1.0541
-1.04129
-1.03114
-0.74042
-0.918375
-1.06319
-1.16546
-1.22936
-1.2622
-1.27203
-1.26622
-1.25056
-1.22921
-1.20499
-1.17973
-1.15458
-1.13026
-1.10726
-1.08599
-1.06698
-1.05055
-1.039
-1.02983
-0.729251
-0.85534
-0.969183
-1.06115
-1.12842
-1.17223
-1.19607
-1.20434
-1.20128
-1.19049
-1.17477
-1.15621
-1.1363
-1.11608
-1.09633
-1.07765
-1.06072
-1.04601
-1.03586
-1.02789
-0.717517
-0.811423
-0.901466
-0.980818
-1.04527
-1.0933
-1.12553
-1.14392
-1.15106
-1.14959
-1.14192
-1.13006
-1.11559
-1.09976
-1.08353
-1.06769
-1.05307
-1.04023
-1.03165
-1.02506
-0.705193
-0.777952
-0.850213
-0.917641
-0.976579
-1.02471
-1.06114
-1.0862
-1.10108
-1.10742
-1.10699
-1.10151
-1.09247
-1.08116
-1.06866
-1.05588
-1.04373
-1.03294
-1.02608
-1.02098
-0.693234
-0.751065
-0.809825
-0.866846
-0.919402
-0.965255
-1.00294
-1.03186
-1.05219
-1.06468
-1.07046
-1.07079
-1.06696
-1.06016
-1.05148
-1.04189
-1.03236
-1.02374
-1.01873
-1.01512
-0.682428
-0.729136
-0.777362
-0.825478
-0.871585
-0.913849
-0.950759
-0.981297
-1.00502
-1.02201
-1.03279
-1.03816
-1.03909
-1.0366
-1.03169
-1.02534
-1.01851
-1.01214
-1.00906
-1.00682
-0.673434
-0.711479
-0.751234
-0.791707
-0.83163
-0.869622
-0.904368
-0.934771
-0.960081
-0.979948
-0.994416
-1.00386
-1.00891
-1.01034
-1.00899
-1.00578
-1.00162
-0.997496
-0.996353
-0.995176
-0.666811
-0.697868
-0.730614
-0.764456
-0.798568
-0.831969
-0.863621
-0.892531
-0.917872
-0.939068
-0.955844
-0.968232
-0.976531
-0.981251
-0.983052
-0.982702
-0.981036
-0.979047
-0.979692
-0.979104
-0.663012
-0.688282
-0.7151
-0.74312
-0.771816
-0.800522
-0.82847
-0.854851
-0.878901
-0.899982
-0.917649
-0.931699
-0.942169
-0.949322
-0.953606
-0.955625
-0.956075
-0.955916
-0.958015
-0.957326
-0.662458
-0.682832
-0.704543
-0.727391
-0.751051
-0.775083
-0.798947
-0.822029
-0.843696
-0.863355
-0.880516
-0.894853
-0.906226
-0.914703
-0.920536
-0.92415
-0.926079
-0.92721
-0.930174
-0.928479
-0.665407
-0.681577
-0.698835
-0.717063
-0.736056
-0.755527
-0.775105
-0.794347
-0.812766
-0.829869
-0.845208
-0.858426
-0.869303
-0.877777
-0.883952
-0.88809
-0.89056
-0.892145
-0.895091
-0.891277
-0.672679
-0.685143
-0.698406
-0.712398
-0.726988
-0.741984
-0.757135
-0.772128
-0.786605
-0.800186
-0.812502
-0.823236
-0.832157
-0.839152
-0.844238
-0.847557
-0.849337
-0.850251
-0.852015
-0.844829
-0.683345
-0.692586
-0.702361
-0.712595
-0.723179
-0.733962
-0.744754
-0.755322
-0.765406
-0.774725
-0.78301
-0.790024
-0.79559
-0.799615
-0.8021
-0.803125
-0.802819
-0.801747
-0.800981
-0.789129
-0.702746
-0.708708
-0.714825
-0.721052
-0.727304
-0.733471
-0.73942
-0.74499
-0.749998
-0.75425
-0.757556
-0.759755
-0.760726
-0.760416
-0.758836
-0.756033
-0.752078
-0.747452
-0.742518
-0.724548
-0.719191
-0.722928
-0.726628
-0.730154
-0.733376
-0.73614
-0.738271
-0.73958
-0.739874
-0.738978
-0.736746
-0.733084
-0.727969
-0.721459
-0.713681
-0.704786
-0.694929
-0.684597
-0.673374
-0.647809
-0.76969
-0.768341
-0.766229
-0.763327
-0.759507
-0.75464
-0.74861
-0.741316
-0.73268
-0.722658
-0.711262
-0.698575
-0.684768
-0.670102
-0.654907
-0.639522
-0.624247
-0.609268
-0.592265
-0.560478
)
;

boundaryField
{
    zeroGradient_plane
    {
        type            zeroGradient;
    }
    inlet
    {
        type            zeroGradient;
    }
    plate
    {
        type            zeroGradient;
    }
    frontAndBack
    {
        type            empty;
    }
}


// ************************************************************************* //
