/*--------------------------------*- C++ -*----------------------------------*\
| =========                 |                                                 |
| \\      /  F ield         | OpenFOAM: The Open Source CFD Toolbox           |
|  \\    /   O peration     | Version:  v1906                                 |
|   \\  /    A nd           | Web:      www.OpenFOAM.com                      |
|    \\/     M anipulation  |                                                 |
\*---------------------------------------------------------------------------*/
FoamFile
{
    version     2.0;
    format      ascii;
    class       surfaceScalarField;
    location    "0.3";
    object      phi;
}
// * * * * * * * * * * * * * * * * * * * * * * * * * * * * * * * * * * * * * //

dimensions      [0 3 -1 0 0 0 0];
oriented        oriented;


internalField   nonuniform List<scalar> 
1540
(
1.9782e-05
2.48705e-06
1.96315e-05
7.69549e-06
1.94776e-05
1.2159e-05
1.9326e-05
1.58798e-05
1.91779e-05
1.89641e-05
1.90331e-05
2.15291e-05
1.88908e-05
2.36775e-05
1.87498e-05
2.54888e-05
1.86084e-05
2.70151e-05
1.84646e-05
2.82799e-05
1.83153e-05
2.92786e-05
1.81564e-05
2.99805e-05
1.79816e-05
3.03323e-05
1.77813e-05
3.02624e-05
1.75399e-05
2.96829e-05
1.72343e-05
2.84897e-05
1.68199e-05
2.65704e-05
1.61637e-05
2.38153e-05
1.49692e-05
2.00011e-05
1.44308e-05
1.31221e-05
2.1535e-05
2.6119e-06
2.13728e-05
7.85763e-06
2.12064e-05
1.23254e-05
2.10432e-05
1.60429e-05
2.08845e-05
1.91229e-05
2.07301e-05
2.16834e-05
2.05797e-05
2.3828e-05
2.04322e-05
2.56363e-05
2.02869e-05
2.71604e-05
2.01426e-05
2.84241e-05
1.99982e-05
2.94229e-05
1.98524e-05
3.01263e-05
1.97037e-05
3.0481e-05
1.95509e-05
3.04152e-05
1.93923e-05
2.98415e-05
1.92245e-05
2.86575e-05
1.90457e-05
2.67491e-05
1.88558e-05
2.40052e-05
1.85831e-05
2.02738e-05
1.52778e-05
1.77361e-05
2.3447e-05
2.73943e-06
2.32749e-05
8.02968e-06
2.30977e-05
1.25027e-05
2.29248e-05
1.62158e-05
2.27582e-05
1.92895e-05
2.25983e-05
2.18432e-05
2.24455e-05
2.39809e-05
2.23e-05
2.57817e-05
2.21629e-05
2.72975e-05
2.2036e-05
2.85511e-05
2.19223e-05
2.95366e-05
2.18271e-05
3.02215e-05
2.17583e-05
3.05498e-05
2.1728e-05
3.04456e-05
2.17515e-05
2.9818e-05
2.18439e-05
2.85651e-05
2.20065e-05
2.65866e-05
2.21985e-05
2.38132e-05
2.225e-05
2.02223e-05
1.58883e-05
2.16395e-05
2.55321e-05
2.86578e-06
2.53533e-05
8.20844e-06
2.5168e-05
1.2688e-05
2.49887e-05
1.63951e-05
2.48187e-05
1.94595e-05
2.46594e-05
2.20025e-05
2.45126e-05
2.41277e-05
2.43809e-05
2.59135e-05
2.42683e-05
2.74101e-05
2.41812e-05
2.86382e-05
2.41289e-05
2.95888e-05
2.41248e-05
3.02257e-05
2.41864e-05
3.04882e-05
2.43346e-05
3.02974e-05
2.45888e-05
2.95638e-05
2.49539e-05
2.82e-05
2.5397e-05
2.61435e-05
2.58174e-05
2.33928e-05
2.6003e-05
2.00366e-05
1.62931e-05
2.55982e-05
2.78052e-05
2.98716e-06
2.76244e-05
8.38931e-06
2.74357e-05
1.28767e-05
2.72552e-05
1.65756e-05
2.70883e-05
1.96265e-05
2.69382e-05
2.21526e-05
2.68088e-05
2.4257e-05
2.67059e-05
2.60164e-05
2.66378e-05
2.74782e-05
2.66165e-05
2.86595e-05
2.66581e-05
2.95473e-05
2.67825e-05
3.01012e-05
2.70124e-05
3.02583e-05
2.73678e-05
2.9942e-05
2.78563e-05
2.90753e-05
2.84562e-05
2.76001e-05
2.90965e-05
2.55032e-05
2.96446e-05
2.28447e-05
2.99084e-05
1.97729e-05
1.65259e-05
2.96756e-05
3.02827e-05
3.09978e-06
3.01058e-05
8.56621e-06
2.99205e-05
1.3062e-05
2.97464e-05
1.67496e-05
2.95917e-05
1.97812e-05
2.94622e-05
2.22822e-05
2.93647e-05
2.43545e-05
2.93089e-05
2.60722e-05
2.93081e-05
2.7479e-05
2.93797e-05
2.85879e-05
2.95448e-05
2.93822e-05
2.98265e-05
2.98195e-05
3.02454e-05
2.98395e-05
3.08108e-05
2.93765e-05
3.15094e-05
2.83767e-05
3.22908e-05
2.68187e-05
3.30596e-05
2.47344e-05
3.36809e-05
2.22233e-05
3.40053e-05
1.94485e-05
1.6615e-05
3.39162e-05
3.29821e-05
3.19986e-06
3.28167e-05
8.73162e-06
3.26439e-05
1.32348e-05
3.24865e-05
1.6907e-05
3.23561e-05
1.99116e-05
3.22614e-05
2.23769e-05
3.2213e-05
2.44029e-05
3.22248e-05
2.60604e-05
3.23147e-05
2.73892e-05
3.25039e-05
2.83986e-05
3.28158e-05
2.90704e-05
3.32709e-05
2.93643e-05
3.38809e-05
2.92295e-05
3.46385e-05
2.86189e-05
3.5508e-05
2.75073e-05
3.64186e-05
2.59081e-05
3.72678e-05
2.38852e-05
3.7938e-05
2.15531e-05
3.83242e-05
1.90623e-05
1.65729e-05
3.83664e-05
3.59227e-05
3.28379e-06
3.57777e-05
8.87661e-06
3.56288e-05
1.33837e-05
3.55012e-05
1.70345e-05
3.54098e-05
2.0003e-05
3.5367e-05
2.24197e-05
3.53869e-05
2.43829e-05
3.54874e-05
2.59599e-05
3.56895e-05
2.71871e-05
3.60159e-05
2.80722e-05
3.64877e-05
2.85986e-05
3.71182e-05
2.87338e-05
3.79055e-05
2.84422e-05
3.88248e-05
2.76997e-05
3.98229e-05
2.65091e-05
4.08204e-05
2.49106e-05
4.17215e-05
2.29841e-05
4.2433e-05
2.08417e-05
4.28854e-05
1.86098e-05
1.64086e-05
4.30497e-05
3.91252e-05
3.34812e-06
3.90108e-05
8.99099e-06
3.88995e-05
1.3495e-05
3.88175e-05
1.71164e-05
3.87826e-05
2.00379e-05
3.88105e-05
2.23918e-05
3.89187e-05
2.42748e-05
3.91275e-05
2.5751e-05
3.94591e-05
2.68555e-05
3.99343e-05
2.7597e-05
4.05681e-05
2.79648e-05
4.1363e-05
2.79389e-05
4.23028e-05
2.75023e-05
4.33483e-05
2.66543e-05
4.44371e-05
2.54203e-05
4.5491e-05
2.38567e-05
4.64281e-05
2.2047e-05
4.71789e-05
2.00909e-05
4.7699e-05
1.80897e-05
1.6132e-05
4.79755e-05
4.26124e-05
3.38954e-06
4.25397e-05
9.06367e-06
4.24814e-05
1.35533e-05
4.24631e-05
1.71348e-05
4.25041e-05
1.99969e-05
4.26224e-05
2.22735e-05
4.28378e-05
2.40594e-05
4.31713e-05
2.54176e-05
4.36432e-05
2.63835e-05
4.42697e-05
2.69705e-05
4.50568e-05
2.71777e-05
4.59954e-05
2.70003e-05
4.70573e-05
2.64405e-05
4.81942e-05
2.55174e-05
4.93423e-05
2.42722e-05
5.04309e-05
2.2768e-05
5.13945e-05
2.10834e-05
5.21828e-05
1.93026e-05
5.27681e-05
1.75044e-05
1.57544e-05
5.31457e-05
4.6409e-05
3.40488e-06
4.63897e-05
9.083e-06
4.64012e-05
1.35418e-05
4.64658e-05
1.70702e-05
4.66027e-05
1.986e-05
4.68307e-05
2.20455e-05
4.71695e-05
2.37205e-05
4.76387e-05
2.49484e-05
4.82545e-05
2.57678e-05
4.90256e-05
2.61993e-05
4.99488e-05
2.62546e-05
5.10045e-05
2.59445e-05
5.21564e-05
2.52886e-05
5.33533e-05
2.43205e-05
5.45353e-05
2.30902e-05
5.56429e-05
2.16604e-05
5.66252e-05
2.01011e-05
5.7447e-05
1.84808e-05
5.8091e-05
1.68605e-05
1.52886e-05
5.85568e-05
5.0542e-05
3.39101e-06
5.05879e-05
9.03715e-06
5.06864e-05
1.34432e-05
5.08536e-05
1.6903e-05
5.11057e-05
1.96079e-05
5.14602e-05
2.1691e-05
5.19344e-05
2.32463e-05
5.2544e-05
2.43388e-05
5.32992e-05
2.50125e-05
5.42009e-05
2.52977e-05
5.52368e-05
2.52186e-05
5.63804e-05
2.48009e-05
5.75916e-05
2.40774e-05
5.8821e-05
2.30911e-05
6.00164e-05
2.18948e-05
6.11295e-05
2.05473e-05
6.21224e-05
1.91082e-05
6.29704e-05
1.76328e-05
6.36631e-05
1.61678e-05
1.47497e-05
6.42019e-05
5.50409e-05
3.34486e-06
5.51636e-05
8.91448e-06
5.5366e-05
1.32409e-05
5.56543e-05
1.66147e-05
5.60389e-05
1.92232e-05
5.65327e-05
2.11972e-05
5.71487e-05
2.26304e-05
5.78968e-05
2.35908e-05
5.87802e-05
2.41291e-05
5.97922e-05
2.42857e-05
6.09144e-05
2.40965e-05
6.21164e-05
2.35989e-05
6.33585e-05
2.28352e-05
6.45966e-05
2.1853e-05
6.57873e-05
2.07041e-05
6.68932e-05
1.94415e-05
6.78863e-05
1.81151e-05
6.875e-05
1.67691e-05
6.94779e-05
1.54399e-05
1.4155e-05
7.00726e-05
5.9938e-05
3.2631e-06
6.0149e-05
8.7035e-06
6.04712e-05
1.29186e-05
6.08972e-05
1.61886e-05
6.1428e-05
1.86924e-05
6.20693e-05
2.05559e-05
6.28274e-05
2.18723e-05
6.37055e-05
2.27127e-05
6.47e-05
2.31346e-05
6.57986e-05
2.31871e-05
6.69791e-05
2.29159e-05
6.8211e-05
2.23671e-05
6.94582e-05
2.1588e-05
7.06835e-05
2.06277e-05
7.18525e-05
1.95351e-05
7.29372e-05
1.83567e-05
7.39178e-05
1.71344e-05
7.47831e-05
1.59038e-05
7.55298e-05
1.46932e-05
1.3524e-05
7.61608e-05
6.5269e-05
3.14156e-06
6.55803e-05
8.39217e-06
6.60377e-05
1.24613e-05
6.66156e-05
1.56107e-05
6.73023e-05
1.80057e-05
6.80937e-05
1.97645e-05
6.89884e-05
2.09776e-05
6.99824e-05
2.17186e-05
7.10669e-05
2.20501e-05
7.2226e-05
2.2028e-05
7.34367e-05
2.17052e-05
7.46711e-05
2.11327e-05
7.58989e-05
2.03602e-05
7.70905e-05
1.94361e-05
7.82201e-05
1.84055e-05
7.92678e-05
1.73091e-05
8.02199e-05
1.61823e-05
8.10696e-05
1.50541e-05
8.18156e-05
1.39472e-05
1.28785e-05
8.24611e-05
7.1074e-05
2.9739e-06
7.15003e-05
7.96586e-06
7.21088e-05
1.18528e-05
7.2851e-05
1.48684e-05
7.36995e-05
1.71573e-05
7.4639e-05
1.8825e-05
7.56595e-05
1.99571e-05
7.67512e-05
2.06269e-05
7.79015e-05
2.08998e-05
7.90935e-05
2.0836e-05
8.03064e-05
2.04924e-05
8.15168e-05
1.99222e-05
8.27012e-05
1.91758e-05
8.38379e-05
1.82995e-05
8.49087e-05
1.73346e-05
8.59004e-05
1.63174e-05
8.68046e-05
1.52781e-05
8.76178e-05
1.42409e-05
8.83402e-05
1.32248e-05
1.22435e-05
8.89753e-05
7.73995e-05
2.74878e-06
7.79616e-05
7.40375e-06
7.87399e-05
1.10744e-05
7.96584e-05
1.39499e-05
8.06721e-05
1.61436e-05
8.17541e-05
1.7743e-05
8.28866e-05
1.88246e-05
8.40553e-05
1.94583e-05
8.52456e-05
1.97094e-05
8.64422e-05
1.96395e-05
8.76281e-05
1.93065e-05
8.87863e-05
1.8764e-05
8.99007e-05
1.80614e-05
9.09575e-05
1.72427e-05
9.19459e-05
1.63463e-05
9.28585e-05
1.54048e-05
9.36915e-05
1.44451e-05
9.44441e-05
1.34883e-05
9.51181e-05
1.25508e-05
1.16446e-05
9.5717e-05
8.43041e-05
2.44109e-06
8.50331e-05
6.67476e-06
8.60033e-05
1.01042e-05
8.71087e-05
1.28446e-05
8.82879e-05
1.49645e-05
8.9504e-05
1.65268e-05
9.07335e-05
1.75951e-05
9.1959e-05
1.82327e-05
9.31666e-05
1.85018e-05
9.43436e-05
1.84625e-05
9.54785e-05
1.81716e-05
9.65607e-05
1.76818e-05
9.75816e-05
1.70406e-05
9.85343e-05
1.629e-05
9.94145e-05
1.54661e-05
0.00010022
1.4599e-05
0.000100952
1.37135e-05
0.000101611
1.28288e-05
0.000102202
1.19599e-05
1.11178e-05
0.000102729
9.18699e-05
1.99277e-06
9.28066e-05
5.73806e-06
9.39887e-05
8.92207e-06
9.52864e-05
1.15469e-05
9.66264e-05
1.36245e-05
9.7964e-05
1.51891e-05
9.92711e-05
1.62881e-05
0.000100529
1.69748e-05
0.000101726
1.73053e-05
0.000102853
1.73352e-05
0.000103906
1.71183e-05
0.000104883
1.67048e-05
0.000105783
1.61404e-05
0.000106608
1.54656e-05
0.000107358
1.47153e-05
0.000108039
1.39186e-05
0.000108653
1.30995e-05
0.000109205
1.22768e-05
0.0001097
1.14652e-05
1.06757e-05
0.000110142
0.000100143
0.000101315
0.000102714
0.00010421
0.000105724
0.000107205
0.000108617
0.000109937
0.000111153
0.000112257
0.000113249
0.000114131
0.00011491
0.000115594
0.000116191
0.000116711
0.000117163
0.000117557
0.000117898
0.000118196
6.61333e-06
6.5088e-06
3.66812e-06
2.94521e-06
2.3383e-06
1.32982e-06
1.68794e-06
6.5035e-07
1.32854e-06
3.59409e-07
1.10188e-06
2.26655e-07
9.42879e-07
1.59001e-07
8.23336e-07
1.19543e-07
7.2953e-07
9.38062e-08
6.53825e-07
7.57051e-08
5.91551e-07
6.22744e-08
5.39713e-07
5.18372e-08
4.96384e-07
4.33293e-08
4.60378e-07
3.60062e-08
4.31087e-07
2.92908e-08
4.08393e-07
2.26942e-08
3.92524e-07
1.5869e-08
3.83935e-07
8.5893e-09
3.8136e-07
2.57436e-09
-1.83106e-09
1.41059e-05
1.0139e-05
1.05405e-05
6.51063e-06
7.88053e-06
3.98981e-06
6.06596e-06
2.46491e-06
4.84492e-06
1.58045e-06
4.00201e-06
1.06956e-06
3.3954e-06
7.65619e-07
2.94022e-06
5.74723e-07
2.58643e-06
4.47593e-07
2.30379e-06
3.58343e-07
2.07337e-06
2.92692e-07
1.88299e-06
2.42225e-07
1.72471e-06
2.01606e-07
1.59355e-06
1.67163e-07
1.48671e-06
1.36135e-07
1.40311e-06
1.06295e-07
1.34301e-06
7.59652e-08
1.30691e-06
4.46855e-08
1.29214e-06
1.73502e-08
2.15808e-10
1.95214e-05
1.22572e-05
1.65814e-05
9.45064e-06
1.36692e-05
6.90196e-06
1.12039e-05
4.93024e-06
9.26321e-06
3.52111e-06
7.777e-06
2.55577e-06
6.63951e-06
1.90311e-06
5.75704e-06
1.45719e-06
5.05954e-06
1.1451e-06
4.49794e-06
9.19943e-07
4.03864e-06
7.51995e-07
3.65874e-06
6.22119e-07
3.34281e-06
5.17536e-07
3.08076e-06
4.29218e-07
2.86659e-06
3.50307e-07
2.69757e-06
2.75312e-07
2.57351e-06
2.00022e-07
2.49455e-06
1.23652e-07
2.45678e-06
5.51166e-08
1.32601e-08
2.42392e-05
1.36161e-05
2.20008e-05
1.16891e-05
1.93487e-05
9.55409e-06
1.67159e-05
7.56301e-06
1.43515e-05
5.88552e-06
1.23457e-05
4.56158e-06
1.06923e-05
3.55644e-06
9.34335e-06
2.80619e-06
8.24169e-06
2.24675e-06
7.33636e-06
1.82527e-06
6.58656e-06
1.5018e-06
5.96151e-06
1.24717e-06
5.43896e-06
1.04008e-06
5.0036e-06
8.6458e-07
4.64584e-06
7.08071e-07
4.36086e-06
5.60285e-07
4.14766e-06
4.13224e-07
4.00597e-06
2.65338e-07
3.93057e-06
1.30517e-07
4.60493e-08
2.87728e-05
1.45189e-05
2.71216e-05
1.33403e-05
2.49053e-05
1.17704e-05
2.24168e-05
1.00515e-05
1.99196e-05
8.38272e-06
1.75913e-05
6.8899e-06
1.55203e-05
5.62741e-06
1.37292e-05
4.5973e-06
1.22028e-05
3.77313e-06
1.09101e-05
3.11804e-06
9.81677e-06
2.5951e-06
8.8921e-06
2.17183e-06
8.11102e-06
1.82116e-06
7.45489e-06
1.52071e-06
6.91132e-06
1.25164e-06
6.4737e-06
9.97896e-07
6.1403e-06
7.46631e-07
5.91075e-06
4.94881e-07
5.77883e-06
2.62441e-07
1.10353e-07
3.33335e-05
1.51016e-05
3.21518e-05
1.45221e-05
3.03993e-05
1.35229e-05
2.82238e-05
1.2227e-05
2.5823e-05
1.07835e-05
2.33841e-05
9.32878e-06
2.1048e-05
7.96348e-06
1.89001e-05
6.74525e-06
1.69784e-05
5.69483e-06
1.52889e-05
4.80758e-06
1.38194e-05
4.06455e-06
1.25505e-05
3.44072e-06
1.14618e-05
2.90984e-06
1.0536e-05
2.44659e-06
9.76031e-06
2.02728e-06
9.12804e-06
1.63017e-06
8.63756e-06
1.2371e-06
8.28937e-06
8.43071e-07
8.07721e-06
4.74607e-07
2.21693e-07
3.80317e-05
1.54362e-05
3.72253e-05
1.53285e-05
3.59045e-05
1.48437e-05
3.41128e-05
1.40187e-05
3.19627e-05
1.29335e-05
2.96012e-05
1.16903e-05
2.71736e-05
1.0391e-05
2.47997e-05
9.11924e-06
2.25623e-05
7.93216e-06
2.05099e-05
6.86004e-06
1.86633e-05
5.91111e-06
1.70259e-05
5.07808e-06
1.55917e-05
4.34409e-06
1.43514e-05
3.68689e-06
1.32972e-05
3.08151e-06
1.2425e-05
2.5023e-06
1.17359e-05
1.92629e-06
1.12328e-05
1.34616e-06
1.09115e-05
7.9591e-07
4.00097e-07
4.29194e-05
1.55665e-05
4.24207e-05
1.58272e-05
4.14837e-05
1.57807e-05
4.00899e-05
1.54125e-05
3.82788e-05
1.47446e-05
3.61385e-05
1.38307e-05
3.37849e-05
1.27446e-05
3.13385e-05
1.15656e-05
2.89057e-05
1.03649e-05
2.65689e-05
9.1969e-06
2.4384e-05
8.09599e-06
2.23845e-05
7.07751e-06
2.05877e-05
6.14097e-06
1.90007e-05
5.27386e-06
1.76271e-05
4.45513e-06
1.64708e-05
3.65859e-06
1.55389e-05
2.8582e-06
1.48403e-05
2.04472e-06
1.43759e-05
1.2603e-06
6.70768e-07
4.80194e-05
1.55227e-05
4.77788e-05
1.60678e-05
4.71782e-05
1.63812e-05
4.61673e-05
1.64234e-05
4.47345e-05
1.61774e-05
4.29119e-05
1.56533e-05
4.07701e-05
1.48864e-05
3.84048e-05
1.39309e-05
3.59205e-05
1.28492e-05
3.34156e-05
1.17018e-05
3.09729e-05
1.05387e-05
2.8656e-05
9.39439e-06
2.65102e-05
8.28685e-06
2.45662e-05
7.21778e-06
2.28463e-05
6.17509e-06
2.13686e-05
5.13625e-06
2.01519e-05
4.07494e-06
1.92154e-05
2.98115e-06
1.85699e-05
1.90586e-06
1.06442e-06
5.33392e-05
1.53291e-05
5.33178e-05
1.60893e-05
5.30099e-05
1.66891e-05
5.23527e-05
1.70806e-05
5.1304e-05
1.72261e-05
4.98529e-05
1.71044e-05
4.80239e-05
1.67154e-05
4.58746e-05
1.60802e-05
4.34868e-05
1.52371e-05
4.09541e-05
1.42345e-05
3.83706e-05
1.31222e-05
3.58213e-05
1.19437e-05
3.33779e-05
1.07302e-05
3.10982e-05
9.49754e-06
2.90283e-05
8.24497e-06
2.72075e-05
6.95709e-06
2.56721e-05
5.61028e-06
2.44579e-05
4.19534e-06
2.35911e-05
2.77269e-06
1.61698e-06
5.88777e-05
1.50082e-05
5.90416e-05
1.59254e-05
5.89856e-05
1.67451e-05
5.86453e-05
1.74209e-05
5.79643e-05
1.79071e-05
5.69034e-05
1.81654e-05
5.54494e-05
1.81694e-05
5.36199e-05
1.79096e-05
5.14624e-05
1.73946e-05
4.90484e-05
1.66485e-05
4.64647e-05
1.57059e-05
4.38035e-05
1.46049e-05
4.1154e-05
1.33797e-05
3.85977e-05
1.20538e-05
3.62068e-05
1.06358e-05
3.40459e-05
9.11808e-06
3.21748e-05
7.48128e-06
3.06519e-05
5.71826e-06
2.95256e-05
3.89901e-06
2.36816e-06
6.46281e-05
1.45821e-05
6.49457e-05
1.56078e-05
6.51019e-05
1.65889e-05
6.50375e-05
1.74852e-05
6.46923e-05
1.82523e-05
6.40126e-05
1.88452e-05
6.29592e-05
1.92227e-05
6.1516e-05
1.93529e-05
5.96938e-05
1.92168e-05
5.75321e-05
1.88102e-05
5.50949e-05
1.8143e-05
5.2465e-05
1.72348e-05
4.97351e-05
1.61096e-05
4.70012e-05
1.47878e-05
4.4357e-05
1.328e-05
4.18925e-05
1.15825e-05
3.96948e-05
9.67902e-06
3.78493e-05
7.56379e-06
3.64328e-05
5.31544e-06
3.35848e-06
7.0581e-05
1.40737e-05
7.1021e-05
1.51678e-05
7.13499e-05
1.626e-05
7.15166e-05
1.73185e-05
7.14644e-05
1.83045e-05
7.11352e-05
1.91744e-05
7.04759e-05
1.98819e-05
6.94464e-05
2.03824e-05
6.80264e-05
2.06368e-05
6.62212e-05
2.06155e-05
6.40635e-05
2.03006e-05
6.16125e-05
1.96858e-05
5.8949e-05
1.87731e-05
5.61692e-05
1.75676e-05
5.33783e-05
1.60709e-05
5.06861e-05
1.42747e-05
4.82048e-05
1.21603e-05
4.60488e-05
9.71979e-06
4.43269e-05
7.0374e-06
4.62429e-06
7.6727e-05
1.35075e-05
7.72571e-05
1.46377e-05
7.7718e-05
1.57991e-05
7.80681e-05
1.69684e-05
7.82577e-05
1.81149e-05
7.82317e-05
1.92005e-05
7.79327e-05
2.01809e-05
7.73077e-05
2.10074e-05
7.63145e-05
2.163e-05
7.4929e-05
2.20009e-05
7.31517e-05
2.2078e-05
7.10102e-05
2.18273e-05
6.85608e-05
2.12225e-05
6.58849e-05
2.02436e-05
6.30847e-05
1.88711e-05
6.02783e-05
1.70811e-05
5.75953e-05
1.48433e-05
5.51746e-05
1.21405e-05
5.31553e-05
9.0567e-06
6.19088e-06
8.3059e-05
1.29096e-05
8.36457e-05
1.40511e-05
8.41965e-05
1.52483e-05
8.46792e-05
1.64857e-05
8.50532e-05
1.77409e-05
8.52701e-05
1.89835e-05
8.52758e-05
2.01752e-05
8.50137e-05
2.12696e-05
8.443e-05
2.22136e-05
8.34809e-05
2.295e-05
8.21391e-05
2.34198e-05
8.04011e-05
2.35653e-05
7.82916e-05
2.33321e-05
7.58655e-05
2.26697e-05
7.32073e-05
2.15292e-05
7.0428e-05
1.98604e-05
6.7661e-05
1.76103e-05
6.50583e-05
1.47432e-05
6.27806e-05
1.13343e-05
8.06428e-06
8.9576e-05
1.23089e-05
9.01833e-05
1.34438e-05
9.07797e-05
1.46519e-05
9.13414e-05
1.5924e-05
9.18371e-05
1.72452e-05
9.22274e-05
1.85932e-05
9.24656e-05
1.99371e-05
9.24985e-05
2.12367e-05
9.22704e-05
2.24417e-05
9.17276e-05
2.34928e-05
9.08251e-05
2.43223e-05
8.95337e-05
2.48566e-05
8.78476e-05
2.50182e-05
8.57898e-05
2.47274e-05
8.34159e-05
2.39032e-05
8.08144e-05
2.24619e-05
7.81052e-05
2.03195e-05
7.54363e-05
1.74121e-05
7.29733e-05
1.37973e-05
1.02239e-05
9.62913e-05
1.17346e-05
9.68825e-05
1.28526e-05
9.7479e-05
1.40554e-05
9.8064e-05
1.5339e-05
9.86147e-05
1.66944e-05
9.91016e-05
1.81063e-05
9.94873e-05
1.95514e-05
9.97271e-05
2.09968e-05
9.97705e-05
2.23984e-05
9.95636e-05
2.36997e-05
9.9054e-05
2.48319e-05
9.81972e-05
2.57135e-05
9.69634e-05
2.6252e-05
9.53456e-05
2.63452e-05
9.33656e-05
2.58832e-05
9.10783e-05
2.47491e-05
8.85733e-05
2.28245e-05
8.59736e-05
2.00118e-05
8.34275e-05
1.63434e-05
1.26185e-05
0.000103238
1.12257e-05
0.000103768
1.23219e-05
0.000104314
1.35101e-05
0.000104863
1.47898e-05
0.000105401
1.61566e-05
0.000105906
1.76007e-05
0.000106352
1.91055e-05
0.000106704
2.06451e-05
0.00010692
2.21821e-05
0.000106954
2.3666e-05
0.000106755
2.50312e-05
0.000106273
2.61952e-05
0.000105466
2.70591e-05
0.000104304
2.75074e-05
0.000102777
2.74098e-05
0.000100903
2.66236e-05
9.87269e-05
2.50003e-05
9.63286e-05
2.24101e-05
9.38145e-05
1.88575e-05
1.51673e-05
0.000110569
1.07986e-05
0.000111013
1.18774e-05
0.000111471
1.30525e-05
0.000111935
1.43254e-05
0.000112397
1.56945e-05
0.000112844
1.71538e-05
0.000113259
1.86908e-05
0.000113619
2.02851e-05
0.000113896
2.19055e-05
0.000114054
2.35076e-05
0.000114054
2.50313e-05
0.000113851
2.63985e-05
0.000113399
2.75111e-05
0.000112655
2.82506e-05
0.000111586
2.84788e-05
0.00011017
2.80402e-05
0.0001084
2.67699e-05
0.000106295
2.45151e-05
0.000103907
2.12462e-05
1.77794e-05
0.000118484
0.000118789
0.000119113
0.000119454
0.000119807
0.000120167
0.000120524
0.000120865
0.000121171
0.000121417
0.00012157
0.000121592
0.000121436
0.000121052
0.000120383
0.000119374
0.000117967
0.000116105
0.000113732
)
;

boundaryField
{
    zeroGradient_plane
    {
        type            calculated;
        value           nonuniform List<scalar> 
80
(
1.35315e-06
4.56577e-06
7.52286e-06
1.0051e-05
1.21104e-05
1.37087e-05
1.4876e-05
1.56541e-05
1.60895e-05
1.6231e-05
1.61267e-05
1.58226e-05
1.53615e-05
1.47821e-05
1.41181e-05
1.33984e-05
1.26471e-05
1.18837e-05
1.11235e-05
1.03778e-05
1.05113e-05
1.15717e-05
1.27284e-05
1.39849e-05
1.53413e-05
1.67938e-05
1.83335e-05
1.99441e-05
2.15996e-05
2.32619e-05
2.4878e-05
2.63767e-05
2.76668e-05
2.86353e-05
2.91473e-05
2.90492e-05
2.81776e-05
2.63767e-05
2.3619e-05
2.07495e-05
3.83191e-07
1.29009e-06
2.44374e-06
3.89778e-06
5.71453e-06
7.96587e-06
1.07331e-05
1.41053e-05
1.81762e-05
2.30385e-05
2.87744e-05
3.54425e-05
4.30611e-05
5.15887e-05
6.09072e-05
7.08137e-05
8.10328e-05
9.12658e-05
0.000101294
0.000110762
-2.36848e-06
-7.54497e-06
-1.20051e-05
-1.57281e-05
-1.8816e-05
-2.13843e-05
-2.35352e-05
-2.53478e-05
-2.68737e-05
-2.8136e-05
-2.91293e-05
-2.98216e-05
-3.01576e-05
-3.00621e-05
-2.94415e-05
-2.8184e-05
-2.6156e-05
-2.31591e-05
-1.88066e-05
-1.25838e-05
)
;
    }
    inlet
    {
        type            calculated;
        value           nonuniform List<scalar> 
20
(
-1.99006e-05
-2.16598e-05
-2.35745e-05
-2.56584e-05
-2.79266e-05
-3.03953e-05
-3.30822e-05
-3.60066e-05
-3.91895e-05
-4.26538e-05
-4.64243e-05
-5.05282e-05
-5.49948e-05
-5.98562e-05
-6.51474e-05
-7.09063e-05
-7.71743e-05
-8.39964e-05
-9.14216e-05
-9.95031e-05
)
;
    }
    plate
    {
        type            calculated;
        value           uniform 0;
    }
    frontAndBack
    {
        type            empty;
        value           nonuniform 0();
    }
}


// ************************************************************************* //
