/*--------------------------------*- C++ -*----------------------------------*\
| =========                 |                                                 |
| \\      /  F ield         | OpenFOAM: The Open Source CFD Toolbox           |
|  \\    /   O peration     | Version:  v1906                                 |
|   \\  /    A nd           | Web:      www.OpenFOAM.com                      |
|    \\/     M anipulation  |                                                 |
\*---------------------------------------------------------------------------*/
FoamFile
{
    version     2.0;
    format      ascii;
    class       volVectorField;
    location    "0.3";
    object      U;
}
// * * * * * * * * * * * * * * * * * * * * * * * * * * * * * * * * * * * * * //

dimensions      [0 1 -1 0 0 0 0];


internalField   nonuniform List<vector> 
800
(
(0.997849 0.0243364 0)
(0.990617 0.0832505 0)
(0.982735 0.143722 0)
(0.975053 0.204657 0)
(0.967507 0.266275 0)
(0.960151 0.329214 0)
(0.952945 0.394232 0)
(0.945837 0.462029 0)
(0.938757 0.533076 0)
(0.931613 0.607416 0)
(0.92428 0.684459 0)
(0.916586 0.76275 0)
(0.908274 0.839723 0)
(0.898967 0.911442 0)
(0.888173 0.972242 0)
(0.874868 1.01422 0)
(0.855884 1.02665 0)
(0.82946 0.994458 0)
(0.811031 0.890868 0)
(0.782409 0.663188 0)
(0.997941 0.0254568 0)
(0.990851 0.0848156 0)
(0.983024 0.145469 0)
(0.975413 0.206526 0)
(0.967965 0.268261 0)
(0.960738 0.331326 0)
(0.953705 0.39649 0)
(0.946832 0.464462 0)
(0.940079 0.535724 0)
(0.933401 0.610337 0)
(0.926747 0.687736 0)
(0.920061 0.766504 0)
(0.913277 0.844139 0)
(0.906328 0.916806 0)
(0.899225 0.979026 0)
(0.891957 1.02322 0)
(0.883655 1.03938 0)
(0.87469 1.0149 0)
(0.873582 0.930177 0)
(0.864684 0.748127 0)
(0.99812 0.0268884 0)
(0.991326 0.0868723 0)
(0.983644 0.147771 0)
(0.976204 0.20898 0)
(0.968981 0.270853 0)
(0.962049 0.33406 0)
(0.955408 0.399379 0)
(0.949068 0.467522 0)
(0.943053 0.538971 0)
(0.93742 0.613787 0)
(0.932267 0.691399 0)
(0.927763 0.770373 0)
(0.924179 0.848172 0)
(0.921928 0.920896 0)
(0.921646 0.982976 0)
(0.924102 1.02678 0)
(0.929537 1.04237 0)
(0.937751 1.01812 0)
(0.948006 0.940239 0)
(0.943642 0.792004 0)
(0.998353 0.0282147 0)
(0.992005 0.0888633 0)
(0.984601 0.150009 0)
(0.977466 0.211348 0)
(0.970626 0.273323 0)
(0.964187 0.336615 0)
(0.958194 0.402002 0)
(0.952724 0.470184 0)
(0.947901 0.541612 0)
(0.943921 0.616302 0)
(0.941081 0.693604 0)
(0.939816 0.771961 0)
(0.940723 0.848647 0)
(0.944573 0.919504 0)
(0.952233 0.978695 0)
(0.964355 1.01856 0)
(0.980586 1.02988 0)
(0.99884 1.00335 0)
(1.01399 0.931664 0)
(1.01312 0.813083 0)
(0.998609 0.0294564 0)
(0.992846 0.0908285 0)
(0.985891 0.152233 0)
(0.979228 0.213679 0)
(0.972962 0.275702 0)
(0.967245 0.338999 0)
(0.962187 0.404329 0)
(0.957951 0.472351 0)
(0.954782 0.543452 0)
(0.953036 0.617543 0)
(0.953206 0.693823 0)
(0.955944 0.770522 0)
(0.962034 0.844654 0)
(0.972299 0.911816 0)
(0.987355 0.966137 0)
(1.00713 1.00054 0)
(1.03015 1.0076 0)
(1.05294 0.981408 0)
(1.06965 0.919813 0)
(1.07184 0.827063 0)
(0.998871 0.0306317 0)
(0.993813 0.0927915 0)
(0.987502 0.154469 0)
(0.981512 0.215989 0)
(0.97604 0.277989 0)
(0.971301 0.341173 0)
(0.967482 0.406263 0)
(0.964847 0.473847 0)
(0.963763 0.544203 0)
(0.964732 0.617084 0)
(0.968393 0.691481 0)
(0.975494 0.765388 0)
(0.986801 0.835607 0)
(1.00289 0.897701 0)
(1.02382 0.946194 0)
(1.04867 0.97518 0)
(1.07509 0.979464 0)
(1.09924 0.95614 0)
(1.11616 0.906055 0)
(1.12085 0.834665 0)
(0.999123 0.0317056 0)
(0.994872 0.0946825 0)
(0.989411 0.156628 0)
(0.984316 0.218169 0)
(0.979882 0.28004 0)
(0.976391 0.342942 0)
(0.974115 0.40754 0)
(0.973415 0.474316 0)
(0.974764 0.543398 0)
(0.978762 0.614346 0)
(0.986099 0.685934 0)
(0.997477 0.755965 0)
(1.01345 0.821187 0)
(1.03416 0.877422 0)
(1.05905 0.919971 0)
(1.08656 0.944388 0)
(1.11402 0.947513 0)
(1.13795 0.928528 0)
(1.15475 0.889556 0)
(1.16164 0.835507 0)
(0.999356 0.032635 0)
(0.99599 0.0964014 0)
(0.991583 0.158575 0)
(0.987618 0.220053 0)
(0.984474 0.28165 0)
(0.982498 0.344051 0)
(0.982041 0.407836 0)
(0.983541 0.473356 0)
(0.987539 0.540563 0)
(0.994658 0.60882 0)
(1.00554 0.676724 0)
(1.0207 0.742002 0)
(1.04037 0.801559 0)
(1.06424 0.851737 0)
(1.09125 0.888836 0)
(1.11956 0.909832 0)
(1.14664 0.913126 0)
(1.16973 0.899084 0)
(1.1864 0.870079 0)
(1.19517 0.830009 0)
(0.999566 0.033383 0)
(0.997137 0.0978402 0)
(0.993971 0.160156 0)
(0.991366 0.221452 0)
(0.989757 0.282587 0)
(0.989536 0.344217 0)
(0.991117 0.406817 0)
(0.994979 0.470586 0)
(1.00167 0.535302 0)
(1.01177 0.600162 0)
(1.02577 0.663672 0)
(1.04394 0.723635 0)
(1.06616 0.777299 0)
(1.09173 0.8217 0)
(1.11938 0.854154 0)
(1.14724 0.872817 0)
(1.1732 0.877129 0)
(1.1952 0.867977 0)
(1.21173 0.847509 0)
(1.22201 0.818655 0)
(0.999751 0.033916 0)
(0.998289 0.0988825 0)
(0.996519 0.161199 0)
(0.995481 0.222143 0)
(0.995619 0.28259 0)
(0.997346 0.34314 0)
(1.0011 0.404151 0)
(1.00735 0.465673 0)
(1.01662 0.527332 0)
(1.02935 0.588223 0)
(1.04584 0.646871 0)
(1.06608 0.701294 0)
(1.08968 0.749217 0)
(1.11574 0.788407 0)
(1.1429 0.817077 0)
(1.16955 0.834251 0)
(1.19402 0.839965 0)
(1.21488 0.835241 0)
(1.23118 0.821851 0)
(1.24253 0.801946 0)
(0.999914 0.034202 0)
(0.999423 0.0994029 0)
(0.999164 0.161508 0)
(0.999857 0.221882 0)
(1.0019 0.281377 0)
(1.00569 0.340516 0)
(1.01164 0.39954 0)
(1.02019 0.458364 0)
(1.03174 0.516511 0)
(1.04658 0.573055 0)
(1.06481 0.626642 0)
(1.0862 0.67561 0)
(1.11015 0.718206 0)
(1.13572 0.752872 0)
(1.16167 0.778528 0)
(1.18666 0.794772 0)
(1.20947 0.801935 0)
(1.22912 0.800982 0)
(1.24503 0.793306 0)
(1.25703 0.780477 0)
(1.00006 0.0342093 0)
(1.00052 0.0992722 0)
(1.00184 0.16088 0)
(1.00437 0.220414 0)
(1.0084 0.278665 0)
(1.01428 0.336064 0)
(1.02235 0.392742 0)
(1.03295 0.448514 0)
(1.04636 0.502853 0)
(1.06271 0.554892 0)
(1.08191 0.603479 0)
(1.10359 0.647317 0)
(1.12708 0.68515 0)
(1.15147 0.715983 0)
(1.17573 0.739244 0)
(1.19882 0.754879 0)
(1.21987 0.763331 0)
(1.23824 0.765434 0)
(1.25357 0.762257 0)
(1.26579 0.754949 0)
(1.00019 0.0339074 0)
(1.00157 0.0983616 0)
(1.00448 0.15911 0)
(1.00888 0.217487 0)
(1.01491 0.274191 0)
(1.0228 0.329553 0)
(1.03279 0.383604 0)
(1.0451 0.436098 0)
(1.05988 0.48652 0)
(1.07711 0.534116 0)
(1.09657 0.577981 0)
(1.11783 0.617175 0)
(1.14022 0.650874 0)
(1.16297 0.678507 0)
(1.18526 0.699846 0)
(1.20632 0.715027 0)
(1.22555 0.724508 0)
(1.24254 0.728977 0)
(1.25707 0.729252 0)
(1.26912 0.726174 0)
(1.0003 0.0332643 0)
(1.00257 0.0965453 0)
(1.00704 0.156002 0)
(1.01328 0.212871 0)
(1.02122 0.267736 0)
(1.03095 0.320818 0)
(1.04257 0.37207 0)
(1.05619 0.421219 0)
(1.07181 0.4678 0)
(1.08933 0.511213 0)
(1.10844 0.550797 0)
(1.12871 0.585929 0)
(1.14956 0.616126 0)
(1.17037 0.64112 0)
(1.19053 0.660896 0)
(1.20948 0.675683 0)
(1.22684 0.685908 0)
(1.24233 0.692132 0)
(1.25584 0.694979 0)
(1.26737 0.695076 0)
(1.00042 0.0322433 0)
(1.00354 0.0936951 0)
(1.0095 0.151369 0)
(1.01751 0.206366 0)
(1.02721 0.259133 0)
(1.03852 0.309779 0)
(1.05143 0.358188 0)
(1.06591 0.404086 0)
(1.08188 0.447083 0)
(1.09914 0.48673 0)
(1.1174 0.522588 0)
(1.13627 0.554289 0)
(1.15529 0.581599 0)
(1.17397 0.604452 0)
(1.1919 0.622957 0)
(1.2087 0.637379 0)
(1.22412 0.648101 0)
(1.238 0.655577 0)
(1.25028 0.66029 0)
(1.26097 0.662713 0)
(1.00054 0.0307962 0)
(1.0045 0.0896735 0)
(1.01192 0.14503 0)
(1.02157 0.1978 0)
(1.03283 0.24827 0)
(1.04545 0.296425 0)
(1.05928 0.342091 0)
(1.07418 0.384994 0)
(1.09002 0.424818 0)
(1.10659 0.461247 0)
(1.12362 0.494013 0)
(1.14079 0.522937 0)
(1.15776 0.547951 0)
(1.17422 0.569116 0)
(1.18986 0.586606 0)
(1.20447 0.600695 0)
(1.21788 0.61172 0)
(1.23003 0.620056 0)
(1.24088 0.626085 0)
(1.25046 0.630174 0)
(1.00069 0.0288565 0)
(1.00556 0.0843377 0)
(1.01443 0.136836 0)
(1.02562 0.187071 0)
(1.03823 0.235129 0)
(1.05185 0.280855 0)
(1.06623 0.324006 0)
(1.08117 0.364306 0)
(1.0965 0.401493 0)
(1.11201 0.43535 0)
(1.1275 0.46573 0)
(1.14275 0.492573 0)
(1.15754 0.515914 0)
(1.17166 0.535879 0)
(1.18496 0.55267 0)
(1.19732 0.566549 0)
(1.20866 0.577813 0)
(1.21895 0.586776 0)
(1.22821 0.593748 0)
(1.23646 0.599028 0)
(1.00093 0.0262503 0)
(1.00691 0.0774163 0)
(1.01726 0.126587 0)
(1.02988 0.174118 0)
(1.04362 0.219817 0)
(1.05795 0.263351 0)
(1.07256 0.30438 0)
(1.08722 0.342599 0)
(1.10174 0.377766 0)
(1.11598 0.409715 0)
(1.12979 0.43837 0)
(1.14303 0.463741 0)
(1.15559 0.48592 0)
(1.16737 0.505067 0)
(1.17831 0.521396 0)
(1.18837 0.535156 0)
(1.19754 0.546615 0)
(1.20583 0.556046 0)
(1.21327 0.563712 0)
(1.21993 0.569862 0)
(1.00141 0.0222342 0)
(1.00889 0.0677052 0)
(1.02076 0.113008 0)
(1.03464 0.157747 0)
(1.04923 0.201318 0)
(1.06397 0.243161 0)
(1.07851 0.282809 0)
(1.09259 0.319886 0)
(1.10605 0.354117 0)
(1.1188 0.38532 0)
(1.13075 0.413415 0)
(1.14188 0.43841 0)
(1.15217 0.460395 0)
(1.16161 0.479523 0)
(1.17024 0.495996 0)
(1.17807 0.510045 0)
(1.18516 0.521915 0)
(1.19154 0.531856 0)
(1.19726 0.540108 0)
(1.20239 0.546898 0)
(1.00205 0.0156271 0)
(1.01118 0.0539802 0)
(1.02439 0.0948632 0)
(1.03928 0.13648 0)
(1.0546 0.177692 0)
(1.06975 0.217712 0)
(1.08437 0.255968 0)
(1.09817 0.29203 0)
(1.11096 0.325587 0)
(1.12266 0.356434 0)
(1.13322 0.384457 0)
(1.14265 0.409633 0)
(1.151 0.432014 0)
(1.15835 0.451712 0)
(1.16478 0.468888 0)
(1.17039 0.483735 0)
(1.17528 0.496466 0)
(1.17952 0.507301 0)
(1.1832 0.516456 0)
(1.1864 0.524141 0)
(0.42405 0.234853 0)
(0.242661 0.0804808 0)
(0.141759 0.02679 0)
(0.0956327 0.00935515 0)
(0.0730372 0.00376727 0)
(0.0595911 0.00189923 0)
(0.0504774 0.00118005 0)
(0.0437841 0.000827892 0)
(0.0385994 0.000614233 0)
(0.0344485 0.000468176 0)
(0.0310523 0.000362204 0)
(0.028233 0.000282293 0)
(0.0258747 0.00021993 0)
(0.0239036 0.000169455 0)
(0.0222771 0.000126877 0)
(0.0209799 8.92385e-05 0)
(0.0200125 5.4886e-05 0)
(0.0194163 2.23857e-05 0)
(0.0191323 6.5971e-07 0)
(0.019239 -1.48e-05 0)
(0.733098 0.443149 0)
(0.56298 0.224734 0)
(0.414542 0.108175 0)
(0.312687 0.0536149 0)
(0.245725 0.028609 0)
(0.200235 0.0167711 0)
(0.168087 0.010734 0)
(0.144401 0.00733739 0)
(0.126248 0.00524697 0)
(0.111894 0.0038696 0)
(0.100276 0.00291445 0)
(0.0907167 0.00222399 0)
(0.0827752 0.00170565 0)
(0.0761673 0.0013014 0)
(0.0707211 0.000972833 0)
(0.0663555 0.000693667 0)
(0.0630479 0.000447492 0)
(0.06088 0.000227502 0)
(0.0597026 6.56684e-05 0)
(0.0596807 -2.64319e-05 0)
(0.881379 0.575206 0)
(0.767507 0.376088 0)
(0.636587 0.232342 0)
(0.520297 0.141435 0)
(0.427485 0.0872195 0)
(0.356136 0.0555722 0)
(0.301753 0.0369022 0)
(0.259921 0.0255015 0)
(0.227152 0.0182289 0)
(0.200974 0.0133842 0)
(0.179694 0.0100258 0)
(0.162161 0.00761124 0)
(0.147591 0.00581343 0)
(0.135465 0.00442577 0)
(0.125453 0.003312 0)
(0.117384 0.00238001 0)
(0.111193 0.0015705 0)
(0.106972 0.000863701 0)
(0.1045 0.000322496 0)
(0.10399 3.26079e-05 0)
(0.978683 0.658194 0)
(0.905718 0.496859 0)
(0.805595 0.355058 0)
(0.69919 0.245647 0)
(0.600457 0.167754 0)
(0.515251 0.114964 0)
(0.444509 0.0799726 0)
(0.386744 0.0567791 0)
(0.339688 0.0411834 0)
(0.301159 0.0304606 0)
(0.269362 0.0228937 0)
(0.242918 0.0174034 0)
(0.220815 0.013301 0)
(0.202338 0.0101363 0)
(0.187014 0.00760622 0)
(0.174578 0.00550368 0)
(0.164915 0.00369303 0)
(0.158113 0.00212806 0)
(0.153899 0.00090511 0)
(0.152515 0.000240274 0)
(1.05204 0.712357 0)
(1.00555 0.585107 0)
(0.93372 0.458991 0)
(0.846671 0.34767 0)
(0.755395 0.257315 0)
(0.66796 0.188265 0)
(0.588918 0.137539 0)
(0.519961 0.101054 0)
(0.460968 0.0749814 0)
(0.410951 0.0562676 0)
(0.368659 0.0426726 0)
(0.332896 0.0326218 0)
(0.302652 0.0250267 0)
(0.277148 0.0191343 0)
(0.255834 0.0144179 0)
(0.238384 0.0105085 0)
(0.224645 0.00715917 0)
(0.214704 0.00427753 0)
(0.208258 0.00199366 0)
(0.20559 0.000699412 0)
(1.11028 0.74824 0)
(1.08133 0.648888 0)
(1.03196 0.542567 0)
(0.965585 0.439294 0)
(0.88852 0.346579 0)
(0.807516 0.268405 0)
(0.72811 0.205568 0)
(0.65398 0.156723 0)
(0.587017 0.119532 0)
(0.527799 0.0914849 0)
(0.476113 0.0703421 0)
(0.431365 0.0542906 0)
(0.392858 0.0419379 0)
(0.35995 0.032243 0)
(0.332141 0.0244358 0)
(0.309113 0.0179544 0)
(0.290724 0.0124109 0)
(0.277081 0.00764533 0)
(0.267889 0.00382103 0)
(0.263504 0.00154572 0)
(1.15758 0.770393 0)
(1.14068 0.693617 0)
(1.10824 0.606974 0)
(1.06031 0.516659 0)
(0.999508 0.428913 0)
(0.930056 0.348678 0)
(0.856614 0.278923 0)
(0.783307 0.220658 0)
(0.713203 0.173414 0)
(0.648227 0.135859 0)
(0.589338 0.106322 0)
(0.536825 0.083149 0)
(0.490586 0.0648736 0)
(0.450349 0.0502798 0)
(0.415831 0.0383962 0)
(0.386842 0.0284717 0)
(0.363326 0.0199658 0)
(0.345461 0.0126347 0)
(0.333009 0.00667589 0)
(0.326464 0.00295667 0)
(1.19591 0.781425 0)
(1.18758 0.722853 0)
(1.16773 0.654067 0)
(1.13504 0.578404 0)
(1.08986 0.500127 0)
(1.03407 0.423559 0)
(0.970708 0.352294 0)
(0.903197 0.288728 0)
(0.834788 0.233967 0)
(0.768128 0.188036 0)
(0.705116 0.150219 0)
(0.646944 0.11941 0)
(0.594261 0.0943743 0)
(0.547357 0.0739223 0)
(0.506344 0.0569959 0)
(0.471301 0.0427101 0)
(0.442362 0.0303907 0)
(0.419859 0.0197095 0)
(0.403673 0.0109043 0)
(0.394532 0.0051593 0)
(1.2263 0.78308 0)
(1.22416 0.7392 0)
(1.21366 0.685928 0)
(1.1931 0.62474 0)
(1.16165 0.558109 0)
(1.11958 0.489132 0)
(1.06829 0.421006 0)
(1.01002 0.356514 0)
(0.947422 0.297683 0)
(0.883168 0.245648 0)
(0.819606 0.20072 0)
(0.7586 0.162579 0)
(0.70151 0.1305 0)
(0.649271 0.10356 0)
(0.602518 0.0807853 0)
(0.561733 0.0612682 0)
(0.527363 0.0442604 0)
(0.499989 0.0293742 0)
(0.479687 0.0169051 0)
(0.467551 0.00843584 0)
(1.24938 0.77667 0)
(1.2517 0.744639 0)
(1.24811 0.704508 0)
(1.23695 0.656644 0)
(1.21693 0.602194 0)
(1.18741 0.543013 0)
(1.14853 0.481431 0)
(1.10133 0.419914 0)
(1.04751 0.360711 0)
(0.989196 0.305577 0)
(0.928664 0.255631 0)
(0.868048 0.21135 0)
(0.809192 0.172669 0)
(0.753602 0.139127 0)
(0.702469 0.11003 0)
(0.656762 0.0845907 0)
(0.617342 0.062089 0)
(0.58514 0.0421343 0)
(0.560502 0.0251151 0)
(0.545053 0.013125 0)
(1.26562 0.763334 0)
(1.27109 0.740806 0)
(1.2725 0.711589 0)
(1.26844 0.67545 0)
(1.25756 0.632667 0)
(1.23878 0.584095 0)
(1.21152 0.531132 0)
(1.17581 0.475566 0)
(1.1324 0.419352 0)
(1.08262 0.364345 0)
(1.02823 0.312081 0)
(0.971206 0.263632 0)
(0.913547 0.21956 0)
(0.857105 0.17996 0)
(0.80353 0.144557 0)
(0.754273 0.112838 0)
(0.710659 0.0842324 0)
(0.674037 0.058433 0)
(0.645086 0.0359766 0)
(0.626151 0.0196145 0)
(1.27543 0.74417 0)
(1.28298 0.729184 0)
(1.28788 0.708864 0)
(1.28899 0.682696 0)
(1.28512 0.650452 0)
(1.27508 0.612294 0)
(1.25792 0.568831 0)
(1.23308 0.521105 0)
(1.20049 0.470497 0)
(1.16067 0.41857 0)
(1.11468 0.366865 0)
(1.06402 0.316722 0)
(1.01047 0.269141 0)
(0.955925 0.224713 0)
(0.902285 0.183628 0)
(0.851367 0.145748 0)
(0.804921 0.110768 0)
(0.764723 0.0785614 0)
(0.731809 0.0498853 0)
(0.709426 0.0283202 0)
(1.27921 0.720306 0)
(1.28798 0.711213 0)
(1.29514 0.698002 0)
(1.29983 0.680066 0)
(1.30105 0.656925 0)
(1.29774 0.628323 0)
(1.28885 0.594299 0)
(1.2735 0.555251 0)
(1.25113 0.511931 0)
(1.22158 0.465391 0)
(1.18521 0.416869 0)
(1.14287 0.367638 0)
(1.09589 0.318848 0)
(1.04589 0.271402 0)
(0.994742 0.225879 0)
(0.944419 0.182528 0)
(0.896958 0.141373 0)
(0.854484 0.102552 0)
(0.818343 0.067115 0)
(0.792846 0.0396458 0)
(1.27742 0.692924 0)
(1.28668 0.688352 0)
(1.29509 0.680696 0)
(1.30201 0.669365 0)
(1.30669 0.653793 0)
(1.30822 0.633509 0)
(1.30564 0.608203 0)
(1.29802 0.577798 0)
(1.28452 0.5425 0)
(1.26457 0.502812 0)
(1.23797 0.459502 0)
(1.20493 0.413523 0)
(1.16619 0.365897 0)
(1.12291 0.317586 0)
(1.07665 0.269376 0)
(1.02929 0.22181 0)
(0.982935 0.175231 0)
(0.939877 0.13007 0)
(0.901651 0.0877253 0)
(0.873731 0.0539227 0)
(1.27055 0.663316 0)
(1.27971 0.662134 0)
(1.28854 0.658715 0)
(1.29659 0.652533 0)
(1.3033 0.643033 0)
(1.30798 0.629668 0)
(1.30984 0.611952 0)
(1.308 0.589512 0)
(1.30161 0.562155 0)
(1.28987 0.529908 0)
(1.27223 0.493048 0)
(1.24843 0.452083 0)
(1.21864 0.407703 0)
(1.18346 0.36069 0)
(1.14398 0.311812 0)
(1.10174 0.261736 0)
(1.05864 0.211016 0)
(1.01693 0.160346 0)
(0.978113 0.111473 0)
(0.948839 0.0713346 0)
(1.2592 0.632773 0)
(1.26777 0.63408 0)
(1.27632 0.63382 0)
(1.28457 0.631547 0)
(1.29213 0.626762 0)
(1.2985 0.61893 0)
(1.30307 0.607501 0)
(1.30511 0.591956 0)
(1.30386 0.571852 0)
(1.29851 0.546874 0)
(1.28836 0.516879 0)
(1.27284 0.481932 0)
(1.25171 0.442299 0)
(1.22506 0.398421 0)
(1.19346 0.350848 0)
(1.15794 0.300169 0)
(1.12001 0.246996 0)
(1.08157 0.192174 0)
(1.04385 0.137745 0)
(1.01463 0.0918206 0)
(1.24408 0.603052 0)
(1.25166 0.606144 0)
(1.2594 0.608165 0)
(1.26712 0.608753 0)
(1.27455 0.607482 0)
(1.28137 0.603866 0)
(1.28712 0.59737 0)
(1.29129 0.587429 0)
(1.29325 0.573479 0)
(1.2923 0.554997 0)
(1.28774 0.531546 0)
(1.27892 0.50282 0)
(1.26534 0.46868 0)
(1.24675 0.429166 0)
(1.22321 0.384487 0)
(1.19525 0.334996 0)
(1.16383 0.281192 0)
(1.13027 0.223935 0)
(1.09533 0.165456 0)
(1.06775 0.114885 0)
(1.2261 0.574931 0)
(1.23231 0.579335 0)
(1.23874 0.583039 0)
(1.2453 0.585745 0)
(1.25182 0.587093 0)
(1.25809 0.586652 0)
(1.26383 0.583928 0)
(1.26867 0.578361 0)
(1.27215 0.569347 0)
(1.27375 0.55626 0)
(1.27286 0.538488 0)
(1.26888 0.515473 0)
(1.26124 0.48676 0)
(1.24949 0.452038 0)
(1.23339 0.411169 0)
(1.21296 0.364208 0)
(1.18862 0.311444 0)
(1.16099 0.253632 0)
(1.13018 0.193045 0)
(1.10577 0.139582 0)
(1.20715 0.552669 0)
(1.21193 0.557902 0)
(1.21688 0.562635 0)
(1.22194 0.566619 0)
(1.22704 0.569549 0)
(1.23205 0.571054 0)
(1.23681 0.570694 0)
(1.2411 0.567958 0)
(1.24466 0.562268 0)
(1.24712 0.552991 0)
(1.24807 0.539461 0)
(1.24704 0.521007 0)
(1.24352 0.497003 0)
(1.23703 0.466905 0)
(1.22712 0.430309 0)
(1.21348 0.386996 0)
(1.19599 0.337014 0)
(1.17449 0.280889 0)
(1.14847 0.220728 0)
(1.12825 0.166873 0)
(1.18933 0.530823 0)
(1.19231 0.537066 0)
(1.19548 0.542972 0)
(1.19883 0.548328 0)
(1.20233 0.552873 0)
(1.20594 0.556283 0)
(1.20957 0.558172 0)
(1.21312 0.558081 0)
(1.21642 0.555474 0)
(1.21925 0.549744 0)
(1.22133 0.540218 0)
(1.22229 0.526181 0)
(1.22171 0.506901 0)
(1.21908 0.481677 0)
(1.21386 0.449893 0)
(1.20549 0.411087 0)
(1.1934 0.365058 0)
(1.17668 0.312128 0)
(1.15446 0.254339 0)
(1.13778 0.202156 0)
)
;

boundaryField
{
    zeroGradient_plane
    {
        type            zeroGradient;
    }
    inlet
    {
        type            fixedValue;
        value           uniform (1 0 0);
    }
    plate
    {
        type            noSlip;
    }
    frontAndBack
    {
        type            empty;
    }
}


// ************************************************************************* //
