/*--------------------------------*- C++ -*----------------------------------*\
| =========                 |                                                 |
| \\      /  F ield         | OpenFOAM: The Open Source CFD Toolbox           |
|  \\    /   O peration     | Version:  v1906                                 |
|   \\  /    A nd           | Web:      www.OpenFOAM.com                      |
|    \\/     M anipulation  |                                                 |
\*---------------------------------------------------------------------------*/
FoamFile
{
    version     2.0;
    format      ascii;
    class       volScalarField;
    location    "0.5";
    object      p;
}
// * * * * * * * * * * * * * * * * * * * * * * * * * * * * * * * * * * * * * //

dimensions      [0 2 -2 0 0 0 0];


internalField   nonuniform List<scalar> 
4800
(
-7.80261e-11
1.67242e-05
5.48651e-05
0.000103671
0.00015794
0.000207246
0.000246196
0.000264369
0.000251162
0.000191494
6.54394e-05
-0.000150515
-0.000456171
-0.000823725
-0.00120728
-0.00156067
-0.00184715
-0.00203564
-0.00208867
-0.00195772
6.4458e-06
2.09449e-05
5.1772e-05
9.55341e-05
0.00015118
0.000213509
0.000262667
0.000283068
0.00026412
0.000179315
1.01912e-05
-0.00024154
-0.000556765
-0.00090273
-0.00124942
-0.00157064
-0.00184197
-0.0020369
-0.0021202
-0.00203887
8.55013e-06
2.23574e-05
5.18003e-05
9.26872e-05
0.000147414
0.000212396
0.000264065
0.000278203
0.00023748
0.00012675
-5.68033e-05
-0.000301914
-0.000589807
-0.000905996
-0.0012298
-0.00153751
-0.00180655
-0.00200808
-0.00210243
-0.00203387
1.01226e-05
2.44386e-05
5.45689e-05
9.57395e-05
0.000141985
0.000194188
0.000242576
0.000255896
0.000206134
8.71172e-05
-9.68601e-05
-0.000333468
-0.000608334
-0.000907139
-0.00121494
-0.00151396
-0.0017797
-0.0019827
-0.0020832
-0.00202612
1.13795e-05
2.57929e-05
5.45168e-05
9.39872e-05
0.000135438
0.000175086
0.000207649
0.000211908
0.000163136
4.8639e-05
-0.000128508
-0.000357094
-0.000621534
-0.000906954
-0.00119896
-0.00148159
-0.00173389
-0.00192783
-0.00202535
-0.00197409
1.16915e-05
2.61413e-05
5.27113e-05
8.77061e-05
0.000124246
0.000153351
0.000167535
0.000155811
0.000104339
8.94759e-07
-0.000160097
-0.000371793
-0.000620849
-0.000890499
-0.00116551
-0.0014301
-0.00166509
-0.0018445
-0.00193298
-0.00188344
1.09909e-05
2.42566e-05
4.80946e-05
7.72168e-05
0.000105091
0.00012369
0.000123749
9.79009e-05
3.97533e-05
-5.64347e-05
-0.000196179
-0.000381335
-0.000604576
-0.000852745
-0.00110992
-0.00135884
-0.0015798
-0.00174764
-0.00182964
-0.00178398
8.47924e-06
2.00851e-05
3.94191e-05
6.15194e-05
7.90519e-05
8.61936e-05
7.6166e-05
4.13929e-05
-2.14048e-05
-0.000112957
-0.000235664
-0.000392673
-0.000584298
-0.000803882
-0.00103882
-0.00127114
-0.0014789
-0.00163661
-0.00171385
-0.0016738
3.50341e-06
1.28265e-05
2.61603e-05
4.0035e-05
4.78529e-05
4.43433e-05
2.56068e-05
-1.35871e-05
-7.69383e-05
-0.000164415
-0.000274508
-0.000408915
-0.000570447
-0.00075807
-0.000963033
-0.00117059
-0.00136046
-0.00150755
-0.00158281
-0.00155308
-4.7071e-06
1.58472e-06
8.64262e-06
1.4002e-05
1.29232e-05
5.733e-07
-2.54521e-05
-6.74462e-05
-0.000128622
-0.000209924
-0.000309878
-0.000427266
-0.00056295
-0.000717413
-0.000887404
-0.00106315
-0.00122897
-0.00136311
-0.00143851
-0.00142386
-1.68332e-05
-1.35845e-05
-1.28457e-05
-1.56418e-05
-2.48197e-05
-4.41098e-05
-7.52278e-05
-0.000119041
-0.000177371
-0.000251259
-0.00034003
-0.000442158
-0.000556549
-0.000683195
-0.000820563
-0.000963448
-0.00110097
-0.00121615
-0.00128659
-0.00128546
-3.30143e-05
-3.30456e-05
-3.78503e-05
-4.76979e-05
-6.38363e-05
-8.83654e-05
-0.000122782
-0.000167386
-0.000222384
-0.000288497
-0.000365739
-0.000453102
-0.000549535
-0.000653983
-0.000764794
-0.000878
-0.000986432
-0.00107858
-0.00113773
-0.00114282
-5.33523e-05
-5.62295e-05
-6.56102e-05
-8.12142e-05
-0.000102794
-0.000131195
-0.000167415
-0.000211377
-0.00026284
-0.000321863
-0.000388405
-0.000462165
-0.000542388
-0.000627956
-0.000717084
-0.000806363
-0.000890087
-0.000959923
-0.00100433
-0.00100878
-7.71921e-05
-8.25886e-05
-9.55537e-05
-0.000115115
-0.000140597
-0.000171695
-0.000208475
-0.000250867
-0.000298497
-0.000351065
-0.000408421
-0.000470243
-0.000536117
-0.000605223
-0.000675854
-0.00074531
-0.000809104
-0.000860964
-0.000892834
-0.00089496
-0.000103876
-0.000111181
-0.00012656
-0.000148668
-0.000176528
-0.000208975
-0.000245512
-0.000285913
-0.000329714
-0.000376444
-0.000425741
-0.00047733
-0.000530813
-0.000585645
-0.000640797
-0.000694142
-0.000742379
-0.000780882
-0.000803967
-0.00080517
-0.000132165
-0.000140733
-0.000157688
-0.000181136
-0.00020984
-0.000242577
-0.00027833
-0.000316478
-0.000356564
-0.000398127
-0.00044067
-0.000483715
-0.000526871
-0.000569832
-0.000612071
-0.000652398
-0.00068863
-0.000717594
-0.000735319
-0.000737397
-0.000160622
-0.000169936
-0.000187633
-0.000211553
-0.000240273
-0.000272501
-0.000306928
-0.00034267
-0.000379193
-0.000416092
-0.000452977
-0.000489434
-0.000525049
-0.000559365
-0.000591872
-0.000621912
-0.000648347
-0.000669362
-0.000682575
-0.000685321
-0.000187518
-0.000197141
-0.000214952
-0.000238788
-0.000267002
-0.000298276
-0.000331291
-0.000364936
-0.000398473
-0.000431441
-0.000463479
-0.000494279
-0.000523611
-0.000551374
-0.000577527
-0.000601768
-0.000623331
-0.000640914
-0.000652793
-0.000657053
-0.000211257
-0.000220643
-0.000237936
-0.000261077
-0.000288322
-0.000318315
-0.000349838
-0.000381768
-0.000413206
-0.00044354
-0.000472365
-0.000499368
-0.000524288
-0.000546943
-0.000567259
-0.000585217
-0.000600714
-0.00061341
-0.000622655
-0.000627578
-0.000231998
-0.000242132
-0.000259753
-0.000282916
-0.000309921
-0.000339359
-0.000370039
-0.00040089
-0.000430984
-0.000459619
-0.000486326
-0.000510787
-0.000532753
-0.000552042
-0.000568553
-0.000582299
-0.000593377
-0.000602058
-0.000608466
-0.000612613
-0.00157266
-0.000981039
-0.000333413
0.000225813
0.000641849
0.000898768
0.000998288
0.000961397
0.000822233
0.000619532
0.00038986
0.000163633
-3.63567e-05
-0.000195126
-0.000305831
-0.000370358
-0.000397503
-0.000399631
-0.000389678
-0.000379049
-0.00037612
-0.000385005
-0.000404969
-0.000432227
-0.000463355
-0.000498088
-0.000539308
-0.000588883
-0.000643006
-0.000691878
-0.000725045
-0.000739471
-0.00074353
-0.000752307
-0.000777079
-0.000816702
-0.000858071
-0.000886335
-0.000897345
-0.000901912
-0.000917664
-0.000954476
-0.00100489
-0.00104883
-0.00107116
-0.00107583
-0.00108159
-0.00110389
-0.001141
-0.00117753
-0.00120152
-0.00121632
-0.00123481
-0.00126492
-0.0013023
-0.00133496
-0.00135464
-0.00136587
-0.00138288
-0.00141448
-0.00145288
-0.00148314
-0.001502
-0.00152043
-0.00154818
-0.0015817
-0.00160973
-0.00162896
-0.00164933
-0.00168072
-0.00171868
-0.00174991
-0.0017707
-0.00179214
-0.00182332
-0.00185744
-0.00188429
-0.00190773
-0.00193667
-0.00196796
-0.00199374
-0.00201703
-0.00204586
-0.00208004
-0.00211411
-0.00214658
-0.00217949
-0.00221357
-0.00224781
-0.00228136
-0.00231333
-0.00234229
-0.00236794
-0.002393
-0.00242121
-0.00245336
-0.00248733
-0.00252199
-0.00255805
-0.00259509
-0.00263104
-0.00266511
-0.0026991
-0.00273493
-0.00277241
-0.00281005
-0.00284703
-0.00288375
-0.00292102
-0.00295895
-0.00299693
-0.00303459
-0.00307257
-0.00311192
-0.0031526
-0.00319334
-0.00323329
-0.00327335
-0.00331539
-0.00335993
-0.00340513
-0.0034488
-0.00349125
-0.00353533
-0.00358377
-0.0036364
-0.00368974
-0.00374009
-0.00378714
-0.00383483
-0.00388898
-0.00395346
-0.00402736
-0.00410485
-0.00417741
-0.0042372
-0.00427977
-0.00430472
-0.00431396
-0.00431803
-0.00431607
-0.00431897
-0.00432341
-0.00433236
-0.00434595
-0.00436384
-0.00438512
-0.00440923
-0.00443528
-0.00446298
-0.00449168
-0.00452135
-0.00455159
-0.00458243
-0.00461369
-0.00464535
-0.00467743
-0.00470975
-0.00474258
-0.00477549
-0.00480903
-0.00484252
-0.00487671
-0.0049108
-0.00494558
-0.00498032
-0.00501559
-0.00505106
-0.00508674
-0.00512297
-0.00515906
-0.00519597
-0.00523259
-0.00527005
-0.00530736
-0.00534519
-0.00538333
-0.00542146
-0.0054604
-0.00549899
-0.00553849
-0.00557784
-0.00561766
-0.00565793
-0.00569802
-0.00573909
-0.00577976
-0.00582127
-0.00586288
-0.0059046
-0.00594717
-0.00598934
-0.00603249
-0.00607553
-0.00611894
-0.00616301
-0.00620677
-0.00625162
-0.00629612
-0.00634134
-0.00638689
-0.0064324
-0.00647883
-0.00652505
-0.00657184
-0.00661915
-0.00666623
-0.00671428
-0.00676217
-0.00681038
-0.00685898
-0.00690752
-0.00695598
-0.00700453
-0.00705236
-0.0070996
-0.00714544
-0.00718964
-0.00723093
-0.00726862
-0.0017142
-0.00115785
-0.000507451
7.78727e-05
0.000526239
0.000814106
0.000939448
0.000921211
0.000794384
0.000600289
0.00037786
0.000158368
-3.61681e-05
-0.000192127
-0.000303099
-0.000370339
-0.000401538
-0.000407868
-0.000401266
-0.000392379
-0.000389159
-0.000395838
-0.000412506
-0.000436558
-0.000465444
-0.00049916
-0.000540342
-0.000590489
-0.000645544
-0.000695463
-0.000729441
-0.000744056
-0.000747561
-0.000755375
-0.000779333
-0.000818702
-0.000860354
-0.000888977
-0.000899983
-0.000904186
-0.000919514
-0.000956099
-0.00100663
-0.001051
-0.00107371
-0.00107827
-0.00108338
-0.00110505
-0.00114226
-0.00117947
-0.00120389
-0.00121834
-0.00123594
-0.00126555
-0.00130344
-0.00133702
-0.00135694
-0.00136747
-0.00138374
-0.0014153
-0.00145419
-0.00148485
-0.00150363
-0.00152161
-0.00154911
-0.00158302
-0.00161156
-0.00163052
-0.00165013
-0.00168128
-0.00171977
-0.00175154
-0.00177208
-0.00179276
-0.00182381
-0.00185861
-0.00188572
-0.00190865
-0.00193753
-0.00196947
-0.00199547
-0.00201832
-0.0020469
-0.00208123
-0.00211531
-0.0021475
-0.00218012
-0.00221401
-0.00224814
-0.0022817
-0.00231387
-0.00234314
-0.00236904
-0.00239418
-0.00242243
-0.00245472
-0.00248879
-0.00252333
-0.00255916
-0.00259609
-0.00263198
-0.00266593
-0.00269981
-0.00273565
-0.00277322
-0.00281089
-0.00284779
-0.00288443
-0.00292169
-0.00295967
-0.00299767
-0.0030353
-0.00307325
-0.00311264
-0.00315338
-0.00319408
-0.00323391
-0.00327391
-0.00331596
-0.00336055
-0.00340571
-0.00344927
-0.00349155
-0.00353546
-0.00358378
-0.00363638
-0.0036897
-0.00373987
-0.00378656
-0.00383371
-0.00388721
-0.00395111
-0.00402446
-0.00410114
-0.00417266
-0.00423164
-0.0042737
-0.00429833
-0.00430956
-0.00431472
-0.00431601
-0.00431702
-0.00432252
-0.00433249
-0.00434682
-0.00436521
-0.00438675
-0.00441094
-0.00443692
-0.00446447
-0.00449296
-0.00452241
-0.00455242
-0.00458308
-0.00461417
-0.0046457
-0.00467768
-0.00470992
-0.0047427
-0.00477556
-0.00480909
-0.00484254
-0.00487675
-0.00491081
-0.00494559
-0.00498033
-0.00501559
-0.00505107
-0.00508674
-0.00512297
-0.00515906
-0.00519598
-0.00523257
-0.00527004
-0.00530737
-0.00534518
-0.00538333
-0.00542145
-0.0054604
-0.00549899
-0.0055385
-0.00557785
-0.00561765
-0.00565793
-0.00569802
-0.00573909
-0.00577977
-0.00582126
-0.00586288
-0.0059046
-0.00594717
-0.00598933
-0.00603248
-0.00607553
-0.00611894
-0.00616301
-0.00620676
-0.00625161
-0.00629613
-0.00634133
-0.00638689
-0.0064324
-0.00647883
-0.00652505
-0.00657185
-0.00661915
-0.00666625
-0.00671427
-0.0067622
-0.00681036
-0.00685901
-0.0069075
-0.00695604
-0.0070045
-0.00705244
-0.00709958
-0.00714551
-0.00718965
-0.00723126
-0.00726958
-0.00172592
-0.00118884
-0.000552852
2.6049e-05
0.000473312
0.00076305
0.000893013
0.000881594
0.00076308
0.000578426
0.000366614
0.00015872
-2.44781e-05
-0.000171814
-0.000279275
-0.000348604
-0.000386252
-0.000401212
-0.00040306
-0.000400523
-0.000400267
-0.000406136
-0.00041903
-0.000438077
-0.000462588
-0.000493671
-0.000534044
-0.000584804
-0.00064141
-0.000693312
-0.000729108
-0.00074476
-0.000748235
-0.00075525
-0.000778386
-0.000817541
-0.000859552
-0.000888516
-0.00089931
-0.000902891
-0.000917821
-0.000954583
-0.00100577
-0.0010509
-0.00107399
-0.00107832
-0.00108277
-0.00110402
-0.00114158
-0.00117964
-0.00120454
-0.00121849
-0.001235
-0.00126414
-0.00130294
-0.00133788
-0.001358
-0.00136745
-0.00138272
-0.00141437
-0.00145407
-0.00148528
-0.00150387
-0.00152138
-0.00154897
-0.00158371
-0.00161289
-0.00163142
-0.00165003
-0.00168106
-0.00172055
-0.0017529
-0.00177249
-0.00179184
-0.00182283
-0.00185836
-0.00188537
-0.00190772
-0.00193709
-0.00197038
-0.00199711
-0.00202004
-0.00204911
-0.00208418
-0.00211825
-0.00214956
-0.00218088
-0.00221323
-0.00224587
-0.00227848
-0.00231053
-0.00234039
-0.00236753
-0.00239469
-0.00242535
-0.00245919
-0.00249295
-0.00252579
-0.00256001
-0.00259626
-0.00263225
-0.00266671
-0.00270119
-0.00273727
-0.00277437
-0.00281126
-0.00284787
-0.00288481
-0.00292229
-0.00296002
-0.00299777
-0.00303574
-0.00307433
-0.00311375
-0.00315376
-0.0031939
-0.00323415
-0.00327515
-0.00331752
-0.00336104
-0.00340475
-0.00344806
-0.00349166
-0.00353715
-0.0035855
-0.00363581
-0.003686
-0.00373476
-0.00378283
-0.00383287
-0.0038882
-0.00395008
-0.0040168
-0.00408396
-0.00414589
-0.00419754
-0.00423643
-0.00426443
-0.00428598
-0.00429567
-0.00430324
-0.0043093
-0.00431805
-0.00433012
-0.00434561
-0.00436449
-0.00438615
-0.00441029
-0.00443619
-0.00446368
-0.00449219
-0.0045217
-0.00455181
-0.00458257
-0.00461376
-0.0046454
-0.00467744
-0.00470977
-0.00474257
-0.0047755
-0.00480901
-0.00484253
-0.00487668
-0.00491081
-0.00494556
-0.00498033
-0.00501559
-0.00505105
-0.00508676
-0.00512294
-0.0051591
-0.00519594
-0.00523264
-0.00527001
-0.00530739
-0.00534517
-0.00538332
-0.00542148
-0.00546035
-0.00549904
-0.00553846
-0.00557788
-0.00561764
-0.00565792
-0.00569805
-0.00573903
-0.00577981
-0.00582123
-0.00586288
-0.00590462
-0.00594713
-0.00598939
-0.00603246
-0.00607554
-0.00611896
-0.00616297
-0.00620684
-0.00625156
-0.00629616
-0.00634134
-0.00638687
-0.00643245
-0.0064788
-0.00652506
-0.00657188
-0.0066191
-0.00666631
-0.00671424
-0.0067622
-0.00681039
-0.006859
-0.0069075
-0.00695609
-0.0070045
-0.00705247
-0.0070996
-0.00714557
-0.00718977
-0.00723161
-0.0072703
-0.0017373
-0.00122674
-0.000618259
-6.103e-05
0.00037197
0.000654439
0.000784154
0.000779164
0.000672635
0.000503915
0.000310313
0.000121386
-4.37011e-05
-0.000175884
-0.000273497
-0.000339497
-0.000379912
-0.000402044
-0.000413028
-0.000419149
-0.000424972
-0.00043295
-0.000443858
-0.000457917
-0.000476412
-0.000502286
-0.000539089
-0.000587989
-0.000644207
-0.000696869
-0.000734163
-0.000751473
-0.000756125
-0.000763467
-0.000786312
-0.000825021
-0.000866587
-0.000894922
-0.000904612
-0.000906842
-0.000920995
-0.000957967
-0.00100997
-0.00105584
-0.00107907
-0.00108302
-0.00108705
-0.00110813
-0.00114564
-0.00118364
-0.00120836
-0.00122183
-0.00123768
-0.00126664
-0.00130609
-0.00134186
-0.00136211
-0.0013709
-0.00138539
-0.00141672
-0.00145668
-0.00148832
-0.00150699
-0.00152429
-0.00155188
-0.00158691
-0.00161622
-0.00163428
-0.001652
-0.00168268
-0.00172291
-0.00175595
-0.00177494
-0.00179322
-0.00182422
-0.00186052
-0.0018878
-0.00191
-0.00193981
-0.00197387
-0.00200066
-0.00202302
-0.00205183
-0.00208691
-0.00212049
-0.00215083
-0.00218132
-0.00221329
-0.0022459
-0.00227889
-0.00231175
-0.00234263
-0.00237064
-0.00239823
-0.00242879
-0.00246212
-0.00249525
-0.00252764
-0.00256176
-0.0025982
-0.00263439
-0.00266878
-0.00270293
-0.00273866
-0.00277564
-0.00281264
-0.00284933
-0.00288617
-0.00292347
-0.00296125
-0.00299928
-0.00303738
-0.00307571
-0.00311475
-0.00315474
-0.00319531
-0.00323587
-0.00327654
-0.00331809
-0.00336108
-0.00340513
-0.00344934
-0.00349334
-0.00353795
-0.00358445
-0.00363325
-0.00368351
-0.00373373
-0.00378317
-0.00383303
-0.00388571
-0.00394302
-0.00400479
-0.00406835
-0.00412929
-0.00418314
-0.00422633
-0.0042566
-0.00427561
-0.00429288
-0.00429828
-0.00430664
-0.00431714
-0.00433053
-0.00434691
-0.00436632
-0.00438822
-0.0044124
-0.0044382
-0.0044655
-0.00449376
-0.00452301
-0.00455285
-0.00458339
-0.00461438
-0.00464585
-0.00467777
-0.00470999
-0.00474272
-0.00477559
-0.00480908
-0.00484256
-0.00487673
-0.00491081
-0.00494557
-0.00498032
-0.00501559
-0.00505104
-0.00508676
-0.00512293
-0.0051591
-0.00519592
-0.00523265
-0.00527
-0.00530739
-0.00534517
-0.00538331
-0.00542149
-0.00546033
-0.00549905
-0.00553843
-0.00557789
-0.00561764
-0.00565791
-0.00569807
-0.00573903
-0.00577983
-0.00582121
-0.00586289
-0.00590462
-0.00594711
-0.0059894
-0.00603244
-0.00607554
-0.00611897
-0.00616295
-0.00620686
-0.00625154
-0.00629617
-0.00634133
-0.00638686
-0.00643246
-0.00647879
-0.00652506
-0.00657188
-0.00661908
-0.00666635
-0.00671422
-0.00676221
-0.00681042
-0.00685899
-0.00690753
-0.00695612
-0.00700451
-0.00705251
-0.00709966
-0.00714563
-0.00718992
-0.00723191
-0.00727093
-0.00170513
-0.0012281
-0.000657574
-0.000132991
0.000275706
0.00054285
0.000666887
0.000665838
0.000571523
0.000421007
0.000248944
8.23544e-05
-6.17074e-05
-0.000176082
-0.000260956
-0.000320498
-0.000360675
-0.000387553
-0.000406355
-0.000421277
-0.000434987
-0.000448396
-0.000461268
-0.000473703
-0.00048802
-0.000508892
-0.000541238
-0.000586645
-0.000640261
-0.000691349
-0.000728494
-0.000747277
-0.000754482
-0.000764395
-0.000789072
-0.000828606
-0.000869995
-0.000897278
-0.000905171
-0.000905314
-0.000918011
-0.00095488
-0.00100798
-0.0010552
-0.00107915
-0.00108313
-0.00108721
-0.00110874
-0.0011464
-0.00118362
-0.00120724
-0.00122013
-0.00123618
-0.00126586
-0.00130594
-0.00134194
-0.0013623
-0.00137121
-0.00138543
-0.00141596
-0.00145526
-0.00148711
-0.0015067
-0.00152463
-0.00155208
-0.00158683
-0.00161625
-0.00163441
-0.00165178
-0.001682
-0.00172246
-0.00175652
-0.00177593
-0.00179313
-0.00182302
-0.00185973
-0.00188783
-0.00190983
-0.00193935
-0.00197396
-0.00200116
-0.00202329
-0.00205218
-0.00208796
-0.00212195
-0.00215194
-0.00218178
-0.00221319
-0.00224535
-0.00227786
-0.00231023
-0.00234088
-0.00236924
-0.00239771
-0.00242947
-0.00246391
-0.00249756
-0.00252961
-0.0025629
-0.00259867
-0.00263459
-0.00266903
-0.00270347
-0.00273949
-0.00277643
-0.00281301
-0.00284938
-0.00288629
-0.00292384
-0.00296155
-0.00299924
-0.00303725
-0.00307596
-0.0031154
-0.00315524
-0.00319518
-0.00323534
-0.00327633
-0.00331855
-0.00336169
-0.00340498
-0.00344806
-0.00349155
-0.00353659
-0.00358387
-0.00363281
-0.0036819
-0.00373007
-0.00377775
-0.00382695
-0.0038797
-0.00393674
-0.00399671
-0.00405621
-0.00411083
-0.00415716
-0.00419404
-0.004223
-0.00424594
-0.00426402
-0.00428173
-0.00429539
-0.00430926
-0.00432514
-0.0043432
-0.00436367
-0.00438621
-0.00441076
-0.00443679
-0.00446425
-0.00449265
-0.00452205
-0.00455204
-0.00458272
-0.00461383
-0.00464543
-0.00467743
-0.00470975
-0.00474252
-0.00477547
-0.00480896
-0.00484249
-0.00487664
-0.00491078
-0.00494554
-0.0049803
-0.00501559
-0.00505101
-0.00508677
-0.00512289
-0.00515913
-0.00519589
-0.00523266
-0.00526999
-0.00530738
-0.00534518
-0.00538328
-0.00542153
-0.00546028
-0.0054991
-0.00553842
-0.00557789
-0.00561766
-0.00565787
-0.00569812
-0.00573898
-0.00577986
-0.00582121
-0.00586287
-0.00590466
-0.00594707
-0.00598945
-0.00603243
-0.00607552
-0.00611901
-0.00616291
-0.00620691
-0.00625152
-0.00629617
-0.00634136
-0.00638682
-0.00643249
-0.00647877
-0.00652506
-0.00657193
-0.00661904
-0.00666638
-0.00671422
-0.0067622
-0.00681046
-0.00685899
-0.00690755
-0.00695616
-0.00700453
-0.00705255
-0.00709972
-0.0071457
-0.00719008
-0.0072322
-0.00727147
-0.00163613
-0.001201
-0.000680542
-0.000201051
0.00017248
0.000415679
0.000528335
0.000528565
0.000446352
0.00031554
0.000167196
2.50705e-05
-9.63406e-05
-0.000191707
-0.000262687
-0.000314392
-0.000352752
-0.000382693
-0.000407648
-0.000429932
-0.000450577
-0.000469289
-0.000484918
-0.000497188
-0.000508927
-0.000526041
-0.000554777
-0.000597011
-0.000647423
-0.000695315
-0.00072991
-0.000747584
-0.00075568
-0.000768239
-0.000796294
-0.000838667
-0.000881384
-0.000908061
-0.000913623
-0.000910546
-0.000920345
-0.000955945
-0.00100988
-0.00105896
-0.00108415
-0.00108805
-0.00109179
-0.00111399
-0.00115277
-0.00118968
-0.00121109
-0.00122172
-0.00123743
-0.00126852
-0.00131001
-0.00134632
-0.00136638
-0.00137518
-0.00138932
-0.00141928
-0.00145761
-0.00148904
-0.00150942
-0.00152846
-0.00155601
-0.00159033
-0.00161971
-0.00163776
-0.00165439
-0.00168386
-0.00172441
-0.00175947
-0.00177966
-0.00179596
-0.00182432
-0.00186117
-0.0018905
-0.0019127
-0.00194197
-0.00197732
-0.00200518
-0.0020268
-0.00205513
-0.00209109
-0.00212512
-0.00215434
-0.00218308
-0.00221372
-0.00224573
-0.00227851
-0.00231127
-0.0023426
-0.00237203
-0.00240137
-0.00243321
-0.00246725
-0.00250049
-0.00253217
-0.00256511
-0.00260082
-0.00263701
-0.00267162
-0.00270584
-0.00274146
-0.00277815
-0.00281476
-0.0028512
-0.00288801
-0.00292531
-0.00296295
-0.0030009
-0.00303919
-0.00307777
-0.00311669
-0.00315617
-0.00319639
-0.00323715
-0.00327824
-0.00331971
-0.00336174
-0.0034046
-0.0034484
-0.00349293
-0.00353808
-0.00358396
-0.00363057
-0.00367793
-0.0037262
-0.00377555
-0.00382613
-0.00387803
-0.00393133
-0.0039854
-0.004039
-0.00409054
-0.00413835
-0.00418029
-0.00421461
-0.00424074
-0.00425895
-0.00427841
-0.00429211
-0.00430774
-0.00432496
-0.00434399
-0.00436507
-0.00438794
-0.00441259
-0.00443857
-0.00446589
-0.0044941
-0.00452327
-0.00455303
-0.0045835
-0.00461443
-0.00464587
-0.00467774
-0.00470996
-0.00474267
-0.00477556
-0.00480902
-0.00484252
-0.00487666
-0.00491077
-0.00494553
-0.00498027
-0.00501558
-0.00505099
-0.00508677
-0.00512286
-0.00515912
-0.00519587
-0.00523266
-0.00526998
-0.00530737
-0.00534519
-0.00538326
-0.00542156
-0.00546029
-0.00549911
-0.00553841
-0.00557789
-0.00561767
-0.00565785
-0.00569814
-0.00573895
-0.00577987
-0.00582121
-0.00586286
-0.00590468
-0.00594704
-0.00598943
-0.00603243
-0.00607551
-0.00611903
-0.00616288
-0.00620693
-0.00625151
-0.00629617
-0.00634138
-0.00638679
-0.00643252
-0.00647875
-0.00652506
-0.00657193
-0.00661902
-0.00666641
-0.00671423
-0.00676219
-0.00681051
-0.00685898
-0.00690758
-0.00695621
-0.00700455
-0.0070526
-0.0070998
-0.00714579
-0.00719024
-0.00723247
-0.00727192
-0.00155921
-0.00116619
-0.000696759
-0.00026455
7.05522e-05
0.000286254
0.00038391
0.000382127
0.000309585
0.000197199
7.23635e-05
-4.47636e-05
-0.000142667
-0.000218021
-0.000273766
-0.000315826
-0.000350274
-0.000381326
-0.000410984
-0.00043975
-0.000466668
-0.000489979
-0.000507727
-0.000519394
-0.000528331
-0.000541559
-0.000566765
-0.00060682
-0.000656096
-0.000702599
-0.000734619
-0.000748817
-0.000754262
-0.000766728
-0.000797429
-0.000843977
-0.000890472
-0.00091871
-0.000922814
-0.000915885
-0.00092126
-0.000954088
-0.00100829
-0.0010599
-0.00108717
-0.00109078
-0.00109287
-0.00111476
-0.00115581
-0.00119515
-0.00121547
-0.00122201
-0.00123485
-0.00126665
-0.00131095
-0.00134936
-0.00136947
-0.00137703
-0.00139014
-0.00142
-0.00145853
-0.00148949
-0.00150921
-0.00152846
-0.00155688
-0.00159195
-0.00162178
-0.00163935
-0.0016544
-0.00168291
-0.00172433
-0.00176079
-0.00178139
-0.00179717
-0.00182474
-0.00186137
-0.00189105
-0.00191327
-0.00194235
-0.00197824
-0.00200661
-0.00202755
-0.00205503
-0.00209124
-0.00212599
-0.00215545
-0.00218391
-0.00221409
-0.00224582
-0.00227874
-0.00231169
-0.00234284
-0.00237198
-0.00240142
-0.0024337
-0.00246829
-0.00250199
-0.00253378
-0.00256644
-0.00260179
-0.00263775
-0.00267225
-0.00270643
-0.00274211
-0.00277887
-0.00281535
-0.00285156
-0.00288833
-0.0029258
-0.00296348
-0.00300118
-0.00303916
-0.00307776
-0.00311704
-0.00315677
-0.00319668
-0.00323679
-0.00327747
-0.00331911
-0.00336171
-0.00340482
-0.00344798
-0.00349126
-0.00353534
-0.00358089
-0.00362794
-0.0036759
-0.0037239
-0.00377148
-0.00381923
-0.00386843
-0.00391982
-0.00397282
-0.00402562
-0.00407536
-0.00411919
-0.00415584
-0.00418601
-0.00421135
-0.0042335
-0.00425657
-0.00427779
-0.00429716
-0.00431701
-0.00433804
-0.00436053
-0.00438439
-0.00440975
-0.00443624
-0.00446395
-0.00449246
-0.0045219
-0.00455189
-0.00458257
-0.00461366
-0.00464527
-0.00467726
-0.00470959
-0.00474237
-0.00477533
-0.00480883
-0.00484237
-0.00487655
-0.00491068
-0.00494547
-0.0049802
-0.00501555
-0.00505094
-0.00508676
-0.00512283
-0.00515913
-0.00519585
-0.00523264
-0.00526998
-0.00530734
-0.00534521
-0.00538322
-0.00542158
-0.00546026
-0.00549912
-0.00553841
-0.00557786
-0.0056177
-0.0056578
-0.00569817
-0.00573893
-0.00577987
-0.00582123
-0.00586282
-0.00590471
-0.00594701
-0.00598944
-0.00603244
-0.00607548
-0.00611908
-0.00616284
-0.00620695
-0.00625151
-0.00629614
-0.00634142
-0.00638676
-0.00643255
-0.00647875
-0.00652505
-0.00657199
-0.006619
-0.00666643
-0.00671425
-0.00676218
-0.00681056
-0.006859
-0.0069076
-0.00695626
-0.00700459
-0.00705266
-0.00709989
-0.00714589
-0.00719041
-0.00723272
-0.0072723
-0.00147312
-0.00112343
-0.00070595
-0.000321719
-2.53325e-05
0.00016265
0.000244479
0.000238823
0.000172948
7.54076e-05
-2.93625e-05
-0.00012422
-0.000200264
-0.000256156
-0.000296102
-0.000326867
-0.000354931
-0.000384447
-0.00041671
-0.000450707
-0.000483697
-0.000512053
-0.000532304
-0.000543325
-0.000548879
-0.00055737
-0.000578302
-0.000616366
-0.000666144
-0.000713858
-0.000745652
-0.0007571
-0.000757736
-0.000766091
-0.000795952
-0.000845546
-0.000897503
-0.000930453
-0.000935712
-0.000925579
-0.000925266
-0.00095338
-0.00100677
-0.00106166
-0.00109281
-0.00109696
-0.00109574
-0.00111441
-0.00115689
-0.00120137
-0.00122448
-0.00122773
-0.00123454
-0.00126359
-0.00131029
-0.00135312
-0.00137555
-0.00138168
-0.00139175
-0.00142067
-0.00146112
-0.00149358
-0.00151185
-0.00152883
-0.00155741
-0.00159476
-0.0016265
-0.00164387
-0.00165651
-0.00168283
-0.00172489
-0.00176351
-0.00178459
-0.0017992
-0.00182621
-0.00186325
-0.001893
-0.00191461
-0.00194364
-0.00198082
-0.00201048
-0.00203106
-0.00205728
-0.0020931
-0.00212831
-0.00215796
-0.00218604
-0.00221543
-0.00224623
-0.00227886
-0.0023125
-0.00234455
-0.00237409
-0.00240367
-0.00243626
-0.00247116
-0.00250483
-0.00253622
-0.00256848
-0.00260373
-0.00263989
-0.00267454
-0.00270861
-0.00274402
-0.00278059
-0.00281702
-0.00285322
-0.00288988
-0.00292714
-0.00296471
-0.00300255
-0.00304078
-0.00307938
-0.00311825
-0.00315748
-0.00319731
-0.00323784
-0.00327893
-0.00332031
-0.00336194
-0.00340404
-0.00344692
-0.00349082
-0.00353565
-0.00358099
-0.00362655
-0.00367226
-0.0037184
-0.00376557
-0.00381419
-0.00386393
-0.00391394
-0.0039633
-0.0040111
-0.00405653
-0.00409928
-0.00413885
-0.00417443
-0.00420521
-0.00423092
-0.0042525
-0.00427557
-0.00429463
-0.00431587
-0.00433788
-0.00436106
-0.00438539
-0.00441099
-0.00443755
-0.00446522
-0.00449363
-0.00452292
-0.00455274
-0.00458325
-0.00461419
-0.00464565
-0.00467754
-0.00470978
-0.0047425
-0.00477541
-0.00480888
-0.0048424
-0.00487654
-0.00491065
-0.00494546
-0.00498019
-0.00501553
-0.0050509
-0.00508674
-0.0051228
-0.0051591
-0.00519583
-0.00523262
-0.00526998
-0.00530732
-0.00534522
-0.00538319
-0.00542159
-0.00546024
-0.00549911
-0.00553841
-0.00557784
-0.00561772
-0.00565777
-0.00569819
-0.00573892
-0.00577987
-0.00582124
-0.00586279
-0.00590474
-0.00594699
-0.00598945
-0.00603245
-0.00607546
-0.00611911
-0.00616282
-0.00620696
-0.00625153
-0.00629612
-0.00634145
-0.00638673
-0.00643257
-0.00647876
-0.00652504
-0.00657201
-0.00661899
-0.00666645
-0.00671427
-0.00676217
-0.0068106
-0.00685902
-0.00690762
-0.00695633
-0.00700463
-0.00705272
-0.00709999
-0.007146
-0.00719057
-0.00723296
-0.00727263
-0.00138116
-0.00107813
-0.000714457
-0.000378435
-0.000119021
4.43947e-05
0.000113452
0.000105309
4.52442e-05
-4.05964e-05
-0.000130147
-0.000208054
-0.000266858
-0.000306354
-0.00033166
-0.000350368
-0.000369643
-0.000394216
-0.000425699
-0.000462602
-0.000500775
-0.000534607
-0.000558788
-0.000570737
-0.000573466
-0.000576325
-0.000591186
-0.000625406
-0.000675416
-0.000726481
-0.000761381
-0.00077253
-0.0007686
-0.000769846
-0.000794303
-0.000843578
-0.000900554
-0.000940882
-0.000950995
-0.000939915
-0.00093351
-0.000954582
-0.00100481
-0.00106238
-0.00109913
-0.00110599
-0.00110159
-0.00111429
-0.0011547
-0.00120427
-0.00123429
-0.00123832
-0.00123876
-0.00126103
-0.00130675
-0.00135443
-0.00138233
-0.00138916
-0.00139486
-0.00141996
-0.00146193
-0.00149847
-0.00151709
-0.00153011
-0.00155588
-0.00159499
-0.00163055
-0.00164962
-0.0016603
-0.00168285
-0.00172352
-0.00176501
-0.00178894
-0.00180228
-0.00182715
-0.00186533
-0.00189668
-0.00191668
-0.0019436
-0.00198178
-0.00201371
-0.00203423
-0.0020585
-0.00209329
-0.00212902
-0.00215945
-0.00218794
-0.0022174
-0.00224772
-0.00227965
-0.00231342
-0.00234644
-0.00237634
-0.00240515
-0.00243709
-0.00247245
-0.00250697
-0.00253847
-0.00257022
-0.00260519
-0.00264143
-0.00267608
-0.00270992
-0.00274518
-0.00278178
-0.00281823
-0.00285429
-0.00289083
-0.00292812
-0.0029657
-0.00300335
-0.00304128
-0.00307974
-0.00311879
-0.00315828
-0.00319804
-0.00323804
-0.00327842
-0.00331946
-0.00336135
-0.00340395
-0.00344685
-0.00348986
-0.00353315
-0.00357714
-0.00362222
-0.00366835
-0.00371507
-0.00376183
-0.00380829
-0.00385466
-0.00390155
-0.00394897
-0.00399608
-0.00404151
-0.0040835
-0.00412058
-0.00415276
-0.00418096
-0.00420661
-0.00423085
-0.00425557
-0.00428121
-0.00430593
-0.00432998
-0.00435482
-0.00438038
-0.0044069
-0.00443419
-0.00446245
-0.00449133
-0.00452101
-0.00455115
-0.00458195
-0.00461312
-0.00464479
-0.00467683
-0.00470921
-0.00474203
-0.00477503
-0.00480858
-0.00484213
-0.0048763
-0.00491048
-0.00494534
-0.00498008
-0.00501547
-0.00505084
-0.0050867
-0.00512276
-0.00515906
-0.00519581
-0.00523258
-0.00526997
-0.00530728
-0.00534522
-0.00538317
-0.00542158
-0.00546023
-0.00549909
-0.00553843
-0.0055778
-0.00561774
-0.00565775
-0.00569819
-0.00573892
-0.00577984
-0.00582127
-0.00586276
-0.00590476
-0.00594698
-0.00598945
-0.00603247
-0.00607543
-0.00611913
-0.00616281
-0.00620695
-0.00625155
-0.00629609
-0.00634148
-0.00638672
-0.00643257
-0.00647878
-0.00652502
-0.00657205
-0.00661898
-0.00666646
-0.0067143
-0.00676216
-0.00681065
-0.00685904
-0.00690765
-0.0069564
-0.00700468
-0.00705279
-0.0071001
-0.00714611
-0.00719072
-0.00723317
-0.00727292
-0.00128637
-0.00103436
-0.000726531
-0.00043833
-0.000213471
-7.03686e-05
-8.85799e-06
-1.50936e-05
-6.74594e-05
-0.000142756
-0.000220683
-0.000287118
-0.000335145
-0.00036426
-0.000379211
-0.000387521
-0.000397041
-0.000413612
-0.000439942
-0.000475459
-0.000516143
-0.000555196
-0.000585043
-0.000600595