/*--------------------------------*- C++ -*----------------------------------*\
| =========                 |                                                 |
| \\      /  F ield         | OpenFOAM: The Open Source CFD Toolbox           |
|  \\    /   O peration     | Version:  v1906                                 |
|   \\  /    A nd           | Web:      www.OpenFOAM.com                      |
|    \\/     M anipulation  |                                                 |
\*---------------------------------------------------------------------------*/
FoamFile
{
    version     2.0;
    format      ascii;
    class       surfaceScalarField;
    location    "0.5";
    object      phi;
}
// * * * * * * * * * * * * * * * * * * * * * * * * * * * * * * * * * * * * * //

dimensions      [0 3 -1 0 0 0 0];
oriented        oriented;


internalField   nonuniform List<scalar> 
9340
(
1.99008e-05
-3.0034e-10
1.99017e-05
-3.1664e-09
1.99015e-05
-1.83005e-09
1.99014e-05
-1.07543e-09
1.9901e-05
1.10112e-09
1.9901e-05
9.1712e-10
1.99009e-05
-1.23202e-11
1.99014e-05
-2.02714e-09
1.99016e-05
-2.31487e-09
1.99001e-05
-1.49872e-09
1.98967e-05
2.15815e-09
1.98916e-05
6.61847e-09
1.98852e-05
1.07723e-08
1.98789e-05
1.27297e-08
1.98736e-05
1.2964e-08
1.98695e-05
1.17894e-08
1.98668e-05
1.04207e-08
1.98644e-05
9.31055e-09
1.98614e-05
8.914e-09
8.97098e-09
1.98581e-05
2.16596e-05
-1.39154e-10
2.16586e-05
-2.16124e-09
2.16586e-05
-1.84143e-09
2.16591e-05
-1.55746e-09
2.16601e-05
1.01701e-10
2.16601e-05
9.16986e-10
2.16587e-05
1.38054e-09
2.16557e-05
1.03968e-09
2.16512e-05
2.16921e-09
2.16449e-05
4.83412e-09
2.16382e-05
8.80008e-09
2.16331e-05
1.17282e-08
2.16301e-05
1.37823e-08
2.16284e-05
1.43753e-08
2.16276e-05
1.38332e-08
2.16269e-05
1.24193e-08
2.16265e-05
1.08851e-08
2.16264e-05
9.43573e-09
2.16269e-05
8.34103e-09
7.60157e-09
2.16283e-05
2.35744e-05
-6.70127e-11
2.35734e-05
-1.11881e-09
2.35728e-05
-1.29528e-09
2.35728e-05
-1.50126e-09
2.35738e-05
-9.14159e-10
2.35736e-05
1.11365e-09
2.35709e-05
4.11405e-09
2.35661e-05
5.76545e-09
2.35604e-05
7.89833e-09
2.35547e-05
1.05479e-08
2.35504e-05
1.3108e-08
2.35472e-05
1.48701e-08
2.35454e-05
1.56182e-08
2.35446e-05
1.5206e-08
2.35443e-05
1.41633e-08
2.35441e-05
1.2581e-08
2.35442e-05
1.08099e-08
2.35444e-05
9.18364e-09
2.35449e-05
7.84602e-09
6.81749e-09
2.35457e-05
2.56584e-05
-7.64487e-12
2.56579e-05
-6.77575e-10
2.56574e-05
-7.44775e-10
2.56563e-05
-4.44606e-10
2.56553e-05
1.05312e-10
2.56544e-05
2.04523e-09
2.56523e-05
6.16858e-09
2.56479e-05
1.01679e-08
2.56428e-05
1.30743e-08
2.5638e-05
1.52667e-08
2.56344e-05
1.67636e-08
2.56319e-05
1.73869e-08
2.563e-05
1.74964e-08
2.56287e-05
1.65241e-08
2.56279e-05
1.49358e-08
2.56276e-05
1.28889e-08
2.56277e-05
1.06843e-08
2.56284e-05
8.52318e-09
2.56294e-05
6.81769e-09
5.42163e-09
2.56308e-05
2.79265e-05
6.69003e-11
2.79261e-05
-2.37273e-10
2.79254e-05
-4.51629e-12
2.7924e-05
8.83829e-10
2.79218e-05
2.30337e-09
2.79197e-05
4.20191e-09
2.79177e-05
8.13217e-09
2.7915e-05
1.28739e-08
2.79109e-05
1.71715e-08
2.79069e-05
1.9319e-08
2.79035e-05
2.01543e-08
2.79011e-05
1.97936e-08
2.78996e-05
1.8987e-08
2.78987e-05
1.73492e-08
2.78984e-05
1.52454e-08
2.78987e-05
1.2611e-08
2.78992e-05
1.02104e-08
2.78998e-05
7.92681e-09
2.79007e-05
5.90053e-09
4.19859e-09
2.79019e-05
3.03951e-05
2.32405e-10
3.03946e-05
2.93755e-10
3.03935e-05
1.03323e-09
3.03922e-05
2.27398e-09
3.03898e-05
4.66154e-09
3.03868e-05
7.24265e-09
3.03842e-05
1.06573e-08
3.03821e-05
1.50111e-08
3.038e-05
1.92258e-08
3.03773e-05
2.20155e-08
3.03748e-05
2.26647e-08
3.0373e-05
2.15813e-08
3.03723e-05
1.974e-08
3.03723e-05
1.73296e-08
3.03728e-05
1.4753e-08
3.03733e-05
1.21248e-08
3.03739e-05
9.62538e-09
3.03745e-05
7.28563e-09
3.03752e-05
5.23058e-09
3.5315e-09
3.03759e-05
3.3082e-05
4.38325e-10
3.30813e-05
9.23638e-10
3.30801e-05
2.24348e-09
3.30784e-05
4.04418e-09
3.30762e-05
6.83276e-09
3.30733e-05
1.00887e-08
3.30705e-05
1.35002e-08
3.30687e-05
1.68125e-08
3.30677e-05
2.02563e-08
3.30671e-05
2.26052e-08
3.30662e-05
2.35178e-08
3.30655e-05
2.23038e-08
3.3065e-05
2.02403e-08
3.30648e-05
1.74991e-08
3.3065e-05
1.45918e-08
3.30654e-05
1.17455e-08
3.30657e-05
9.2471e-09
3.30663e-05
6.78038e-09
3.30669e-05
4.62248e-09
2.81794e-09
3.30676e-05
3.60063e-05
6.80369e-10
3.60055e-05
1.74942e-09
3.60042e-05
3.52549e-09
3.60023e-05
5.92733e-09
3.60003e-05
8.92314e-09
3.59981e-05
1.22113e-08
3.5996e-05
1.56533e-08
3.59945e-05
1.82678e-08
3.59942e-05
2.05369e-08
3.59946e-05
2.22134e-08
3.59952e-05
2.29911e-08
3.59951e-05
2.23439e-08
3.5995e-05
2.04106e-08
3.59948e-05
1.76622e-08
3.59948e-05
1.4618e-08
3.5995e-05
1.15342e-08
3.59955e-05
8.69067e-09
3.59962e-05
6.15646e-09
3.59967e-05
4.03456e-09
2.35128e-09
3.59972e-05
3.91892e-05
9.72728e-10
3.91883e-05
2.70421e-09
3.91869e-05
4.85889e-09
3.91853e-05
7.56689e-09
3.91835e-05
1.06894e-08
3.9182e-05
1.37391e-08
3.91808e-05
1.68069e-08
3.91801e-05
1.90548e-08
3.91799e-05
2.06769e-08
3.91806e-05
2.14977e-08
3.91817e-05
2.19446e-08
3.91827e-05
2.13461e-08
3.91833e-05
1.97987e-08
3.91838e-05
1.71621e-08
3.91841e-05
1.42525e-08
3.91844e-05
1.12505e-08
3.91847e-05
8.40188e-09
3.9185e-05
5.85782e-09
3.91853e-05
3.79617e-09
2.21239e-09
3.91854e-05
4.26535e-05
1.27865e-09
4.26526e-05
3.61923e-09
4.26513e-05
6.12112e-09
4.26499e-05
8.9491e-09
4.26486e-05
1.19967e-08
4.26476e-05
1.47613e-08
4.26472e-05
1.72161e-08
4.26472e-05
1.90913e-08
4.26475e-05
2.03286e-08
4.26483e-05
2.07139e-08
4.26498e-05
2.04303e-08
4.26514e-05
1.97347e-08
4.26528e-05
1.8376e-08
4.26536e-05
1.63587e-08
4.26541e-05
1.38296e-08
4.26543e-05
1.09849e-08
4.26544e-05
8.31022e-09
4.26544e-05
5.85118e-09
4.26544e-05
3.78768e-09
2.20468e-09
4.26544e-05
4.6424e-05
1.57828e-09
4.64232e-05
4.43756e-09
4.64221e-05
7.19509e-09
4.64211e-05
9.96807e-09
4.64203e-05
1.27882e-08
4.64199e-05
1.51671e-08
4.642e-05
1.71117e-08
4.64205e-05
1.85754e-08
4.64214e-05
1.94215e-08
4.64226e-05
1.95176e-08
4.64241e-05
1.90013e-08
4.64259e-05
1.79444e-08
4.64275e-05
1.67055e-08
4.64289e-05
1.50094e-08
4.64298e-05
1.29552e-08
4.64301e-05
1.0657e-08
4.64301e-05
8.25635e-09
4.643e-05
5.9492e-09
4.64298e-05
4.02918e-09
2.48992e-09
4.64295e-05
5.05279e-05
1.83187e-09
5.05273e-05
5.05799e-09
5.05265e-05
7.96813e-09
5.05259e-05
1.05952e-08
5.05256e-05
1.30764e-08
5.05257e-05
1.50545e-08
5.05262e-05
1.65957e-08
5.05272e-05
1.75918e-08
5.05285e-05
1.81039e-08
5.053e-05
1.80083e-08
5.05316e-05
1.74074e-08
5.05332e-05
1.6336e-08
5.0535e-05
1.49695e-08
5.05365e-05
1.35246e-08
5.05376e-05
1.17846e-08
5.05384e-05
9.89919e-09
5.05387e-05
7.98659e-09
5.05385e-05
6.10768e-09
5.05382e-05
4.33396e-09
2.88905e-09
5.05378e-05
5.49946e-05
2.01135e-09
5.49942e-05
5.44235e-09
5.49938e-05
8.37806e-09
5.49936e-05
1.08018e-08
5.49938e-05
1.28912e-08
5.49943e-05
1.44839e-08
5.49953e-05
1.56733e-08
5.49965e-05
1.6323e-08
5.49981e-05
1.65347e-08
5.49998e-05
1.62799e-08
5.50016e-05
1.56441e-08
5.50033e-05
1.46432e-08
5.50048e-05
1.34106e-08
5.50063e-05
1.20857e-08
5.50075e-05
1.0567e-08
5.50084e-05
8.97324e-09
5.5009e-05
7.39999e-09
5.50092e-05
5.88314e-09
5.50091e-05
4.50224e-09
3.30391e-09
5.50087e-05
5.98561e-05
2.08685e-09
5.9856e-05
5.55985e-09
5.9856e-05
8.39953e-09
5.98562e-05
1.05986e-08
5.98568e-05
1.22788e-08
5.98577e-05
1.356e-08
5.9859e-05
1.44216e-08
5.98605e-05
1.48106e-08
5.98622e-05
1.48207e-08
5.9864e-05
1.44522e-08
5.98659e-05
1.37998e-08
5.98677e-05
1.28825e-08
5.98693e-05
1.17972e-08
5.98707e-05
1.06216e-08
5.98719e-05
9.35697e-09
5.98729e-05
8.02781e-09
5.98736e-05
6.73321e-09
5.98739e-05
5.50854e-09
5.9874e-05
4.40599e-09
3.45731e-09
5.98739e-05
6.51475e-05
2.04652e-09
6.51476e-05
5.41833e-09
6.5148e-05
8.03805e-09
6.51486e-05
9.97337e-09
6.51495e-05
1.13481e-08
6.51508e-05
1.23199e-08
6.51523e-05
1.29072e-08
6.5154e-05
1.31029e-08
6.51558e-05
1.29838e-08
6.51577e-05
1.25792e-08
6.51595e-05
1.19588e-08
6.51613e-05
1.11467e-08
6.51628e-05
1.02117e-08
6.51643e-05
9.1634e-09
6.51655e-05
8.1156e-09
6.51665e-05
7.04944e-09
6.51672e-05
6.01534e-09
6.51677e-05
5.04461e-09
6.51679e-05
4.17689e-09
3.43035e-09
6.5168e-05
7.09065e-05
1.89771e-09
7.09069e-05
5.00384e-09
7.09076e-05
7.32398e-09
7.09086e-05
9.00526e-09
7.09098e-05
1.01166e-08
7.09113e-05
1.08311e-08
7.0913e-05
1.12064e-08
7.09148e-05
1.12617e-08
7.09168e-05
1.1063e-08
7.09187e-05
1.0645e-08
7.09206e-05
1.00773e-08
7.09223e-05
9.40543e-09
7.09238e-05
8.7158e-09
7.09251e-05
7.88253e-09
7.09262e-05
7.01134e-09
7.09271e-05
6.13012e-09
7.09279e-05
5.28072e-09
7.09284e-05
4.48662e-09
7.09288e-05
3.7817e-09
3.1889e-09
7.09291e-05
7.71746e-05
1.64931e-09
7.71752e-05
4.35376e-09
7.71763e-05
6.31537e-09
7.71776e-05
7.69907e-09
7.71791e-05
8.60983e-09
7.71808e-05
9.1296e-09
7.71826e-05
9.35885e-09
7.71845e-05
9.34097e-09
7.71865e-05
9.12742e-09
7.71884e-05
8.74052e-09
7.71902e-05
8.22943e-09
7.7192e-05
7.63393e-09
7.71937e-05
7.01605e-09
7.71952e-05
6.3897e-09
7.71964e-05
5.75539e-09
7.71974e-05
5.12379e-09
7.71982e-05
4.51607e-09
7.71988e-05
3.94609e-09
7.71991e-05
3.43187e-09
2.98298e-09
7.71993e-05
8.39968e-05
1.3203e-09
8.39976e-05
3.48225e-09
8.39989e-05
5.04776e-09
8.40005e-05
6.13091e-09
8.40022e-05
6.83697e-09
8.40041e-05
7.22321e-09
8.40061e-05
7.37426e-09
8.40081e-05
7.34032e-09
8.40101e-05
7.17039e-09
8.40119e-05
6.88687e-09
8.40137e-05
6.52192e-09
8.40152e-05
6.09385e-09
8.40166e-05
5.62597e-09
8.40178e-05
5.12793e-09
8.4019e-05
4.618e-09
8.402e-05
4.11176e-09
8.40209e-05
3.62994e-09
8.40216e-05
3.18438e-09
8.40223e-05
2.78853e-09
2.44852e-09
8.40228e-05
9.14219e-05
9.63093e-10
9.14229e-05
2.48752e-09
9.14244e-05
3.58768e-09
9.14262e-05
4.34578e-09
9.14282e-05
4.84251e-09
9.14303e-05
5.11969e-09
9.14324e-05
5.22974e-09
9.14346e-05
5.2093e-09
9.14366e-05
5.09651e-09
9.14386e-05
4.90927e-09
9.14405e-05
4.66854e-09
9.14422e-05
4.38593e-09
9.14437e-05
4.07854e-09
9.14451e-05
3.75534e-09
9.14463e-05
3.42762e-09
9.14473e-05
3.09951e-09
9.14481e-05
2.7788e-09
9.14489e-05
2.47211e-09
9.14495e-05
2.18986e-09
1.93955e-09
9.145e-05
9.95036e-05
9.95049e-05
9.95066e-05
9.95086e-05
9.95108e-05
9.95131e-05
9.95154e-05
9.95176e-05
9.95198e-05
9.95218e-05
9.95237e-05
9.95255e-05
9.95271e-05
9.95286e-05
9.95299e-05
9.9531e-05
9.95319e-05
9.95326e-05
9.95332e-05
9.95338e-05
1.98486e-05
9.50476e-09
1.98374e-05
1.12141e-08
1.98244e-05
1.29903e-08
1.98099e-05
1.45334e-08
1.97941e-05
1.57692e-08
1.97774e-05
1.67068e-08
1.976e-05
1.73896e-08
1.97421e-05
1.79015e-08
1.97238e-05
1.83195e-08
1.97051e-05
1.86749e-08
1.96862e-05
1.89527e-08
1.9667e-05
1.91386e-08
1.96478e-05
1.92543e-08
1.96284e-05
1.9328e-08
1.96091e-05
1.93739e-08
1.95896e-05
1.94223e-08
1.95701e-05
1.95099e-08
1.95505e-05
1.96627e-08
1.95306e-05
1.98858e-08
1.95104e-05
2.01622e-08
1.949e-05
2.04606e-08
1.94692e-05
2.07418e-08
1.94482e-05
2.09805e-08
1.94271e-05
2.11749e-08
1.94057e-05
2.13358e-08
1.93842e-05
2.14793e-08
1.93626e-05
2.16185e-08
1.93409e-05
2.17632e-08
1.93189e-05
2.19232e-08
1.92968e-05
2.21027e-08
1.92745e-05
2.22993e-08
1.9252e-05
2.25013e-08
1.92293e-05
2.26925e-08
1.92065e-05
2.2866e-08
1.91835e-05
2.30269e-08
1.91603e-05
2.31901e-08
1.91369e-05
2.33677e-08
1.91133e-05
2.35589e-08
1.90896e-05
2.375e-08
1.90657e-05
2.39217e-08
1.90416e-05
2.40745e-08
1.90174e-05
2.4226e-08
1.8993e-05
2.43933e-08
1.89684e-05
2.45884e-08
1.89436e-05
2.47999e-08
1.89186e-05
2.50047e-08
1.88934e-05
2.51945e-08
1.8868e-05
2.53756e-08
1.88424e-05
2.55723e-08
1.88166e-05
2.58008e-08
1.87906e-05
2.60396e-08
1.87643e-05
2.626e-08
1.87379e-05
2.64511e-08
1.87113e-05
2.662e-08
1.86845e-05
2.6797e-08
1.86575e-05
2.70038e-08
1.86302e-05
2.72154e-08
1.86029e-05
2.7389e-08
1.85753e-05
2.7521e-08
1.85477e-05
2.765e-08
1.85199e-05
2.78084e-08
1.84919e-05
2.79985e-08
1.84637e-05
2.82035e-08
1.84353e-05
2.84121e-08
1.84066e-05
2.86377e-08
1.83777e-05
2.89151e-08
1.83485e-05
2.92514e-08
1.83189e-05
2.95974e-08
1.8289e-05
2.99059e-08
1.82588e-05
3.01813e-08
1.82283e-05
3.04486e-08
1.81976e-05
3.07012e-08
1.81667e-05
3.08896e-08
1.81358e-05
3.09542e-08
1.81049e-05
3.09199e-08
1.8074e-05
3.08956e-08
1.80431e-05
3.0914e-08
1.80121e-05
3.09256e-08
1.79811e-05
3.09907e-08
1.79499e-05
3.12577e-08
1.79181e-05
3.17411e-08
1.78858e-05
3.23517e-08
1.78527e-05
3.30692e-08
1.78188e-05
3.38831e-08
1.77842e-05
3.46651e-08
1.77489e-05
3.52501e-08
1.77134e-05
3.55381e-08
1.76779e-05
3.54673e-08
1.76429e-05
3.50346e-08
1.76085e-05
3.43652e-08
1.75748e-05
3.36656e-08
1.75417e-05
3.31168e-08
1.75089e-05
3.28786e-08
1.74757e-05
3.31395e-08
1.74417e-05
3.40029e-08
1.74064e-05
3.52775e-08
1.73699e-05
3.65022e-08
1.73326e-05
3.72868e-08
1.7295e-05
3.75951e-08
1.72574e-05
3.76552e-08
1.72197e-05
3.77036e-08
1.71818e-05
3.78815e-08
1.71436e-05
3.82492e-08
1.71048e-05
3.87394e-08
1.70657e-05
3.91511e-08
1.70263e-05
3.93413e-08
1.69869e-05
3.94004e-08
1.69474e-05
3.95344e-08
1.69076e-05
3.97887e-08
1.68676e-05
4.00181e-08
1.68274e-05
4.01433e-08
1.67871e-05
4.0299e-08
1.67465e-05
4.06398e-08
1.67054e-05
4.1079e-08
1.66641e-05
4.13666e-08
1.66226e-05
4.14331e-08
1.65811e-05
4.15206e-08
1.65392e-05
4.18912e-08
1.64968e-05
4.246e-08
1.64539e-05
4.28398e-08
1.64111e-05
4.27938e-08
1.63686e-05
4.25627e-08
1.63259e-05
4.26436e-08
1.62827e-05
4.32389e-08
1.62387e-05
4.39776e-08
1.61945e-05
4.42127e-08
1.61509e-05
4.36259e-08
1.61083e-05
4.25776e-08
1.60664e-05
4.18469e-08
1.60244e-05
4.1998e-08
1.59816e-05
4.28759e-08
1.5938e-05
4.35939e-08
1.5895e-05
4.29832e-08
1.58548e-05
4.01975e-08
1.58197e-05
3.50868e-08
1.57915e-05
2.82292e-08
1.57708e-05
2.06347e-08
1.57575e-05
1.338e-08
1.57501e-05
7.3415e-09
1.57472e-05
2.87649e-09
1.57472e-05
-5.13903e-12
1.57488e-05
-1.561e-09
1.5751e-05
-2.22366e-09
1.57533e-05
-2.27473e-09
1.57553e-05
-2.03127e-09
1.5757e-05
-1.64071e-09
1.57582e-05
-1.27464e-09
1.57592e-05
-9.25202e-10
1.57599e-05
-6.87127e-10
1.57603e-05
-4.69521e-10
1.57607e-05
-3.61012e-10
1.57609e-05
-2.35039e-10
1.57611e-05
-2.03876e-10
1.57613e-05
-1.23466e-10
1.57614e-05
-1.29206e-10
1.57615e-05
-7.04302e-11
1.57615e-05
-8.86679e-11
1.57616e-05
-4.5603e-11
1.57616e-05
-5.99796e-11
1.57617e-05
-3.67362e-11
1.57617e-05
-3.36047e-11
1.57618e-05
-3.94264e-11
1.57618e-05
-6.3839e-12
1.57618e-05
-4.97808e-11
1.57618e-05
2.04042e-11
1.57619e-05
-6.18999e-11
1.57618e-05
4.06313e-11
1.57619e-05
-6.71562e-11
1.57618e-05
4.69424e-11
1.57619e-05
-5.78913e-11
1.57619e-05
3.41276e-11
1.57619e-05
-3.10358e-11
1.57619e-05
3.99514e-12
1.57619e-05
7.17464e-12
1.57619e-05
-3.15654e-11
1.57619e-05
4.00249e-11
1.57619e-05
-5.14241e-11
1.57619e-05
4.63512e-11
1.57619e-05
-3.92066e-11
1.57619e-05
1.95287e-11
1.57619e-05
-2.79566e-13
1.57619e-05
-2.1995e-11
1.57619e-05
3.57272e-11
1.57619e-05
-4.17542e-11
1.57619e-05
3.43002e-11
1.57619e-05
-1.80898e-11
1.57619e-05
-5.102e-12
1.57619e-05
2.66215e-11
1.57619e-05
-4.08029e-11
1.57619e-05
4.13611e-11
1.57619e-05
-2.8453e-11
1.57619e-05
5.27201e-12
1.57619e-05
2.05218e-11
1.57619e-05
-4.035e-11
1.57619e-05
4.67453e-11
1.57619e-05
-3.6573e-11
1.57619e-05
1.26336e-11
1.57619e-05
1.85905e-11
1.57619e-05
-4.6961e-11
1.57619e-05
6.38671e-11
1.57619e-05
-6.24597e-11
1.57619e-05
4.46704e-11
1.57619e-05
-1.57543e-11
1.57619e-05
-9.36587e-12
1.57619e-05
2.06167e-11
1.57619e-05
-5.5374e-12
1.57619e-05
-2.52158e-11
1.57619e-05
6.42461e-11
1.57619e-05
-7.94683e-11
1.57619e-05
8.15841e-11
1.57619e-05
-5.51521e-11
1.57618e-05
6.18093e-11
1.57619e-05
-5.65492e-11
1.57618e-05
1.15248e-10
1.57619e-05
-9.88878e-11
1.57617e-05
1.6747e-10
1.57618e-05
-1.0873e-10
1.57616e-05
2.14463e-10
1.57617e-05
-9.31476e-11
4.83203e-10
2.16305e-05
7.32286e-09
2.16335e-05
8.20621e-09
2.1637e-05
9.45479e-09
2.16407e-05
1.08527e-08
2.16442e-05
1.22549e-08
2.16473e-05
1.36038e-08
2.16499e-05
1.48499e-08
2.16518e-05
1.59578e-08
2.16532e-05
1.69128e-08
2.16542e-05
1.77093e-08
2.16548e-05
1.83311e-08
2.16552e-05
1.87503e-08
2.16555e-05
1.89526e-08
2.16559e-05
1.89647e-08
2.16564e-05
1.88705e-08
2.1657e-05
1.87704e-08
2.16578e-05
1.87471e-08
2.16586e-05
1.88552e-08
2.16594e-05
1.9108e-08
2.166e-05
1.94773e-08
2.16606e-05
1.99155e-08
2.1661e-05
2.03593e-08
2.16612e-05
2.07536e-08
2.16613e-05
2.10679e-08
2.16613e-05
2.12976e-08
2.16614e-05
2.14705e-08
2.16614e-05
2.16194e-08
2.16613e-05
2.1769e-08
2.16613e-05
2.19388e-08
2.16613e-05
2.21349e-08
2.16612e-05
2.23566e-08
2.16611e-05
2.25941e-08
2.1661e-05
2.28324e-08
2.16608e-05
2.306e-08
2.16606e-05
2.32715e-08
2.16603e-05
2.34802e-08
2.16599e-05
2.36994e-08
2.16596e-05
2.39314e-08
2.16592e-05
2.41656e-08
2.16587e-05
2.43779e-08
2.16582e-05
2.45676e-08
2.16577e-05
2.47543e-08
2.16571e-05
2.49539e-08
2.16565e-05
2.51805e-08
2.16559e-05
2.54289e-08
2.16552e-05
2.5679e-08
2.16545e-05
2.59184e-08
2.16537e-05
2.61477e-08
2.16529e-05
2.6389e-08
2.16521e-05
2.66581e-08
2.16512e-05
2.69379e-08
2.16502e-05
2.72027e-08
2.16492e-05
2.74337e-08
2.16482e-05
2.76342e-08
2.16472e-05
2.78448e-08
2.16461e-05
2.80949e-08
2.16449e-05
2.83578e-08
2.16437e-05
2.85858e-08
2.16425e-05
2.8773e-08
2.16412e-05
2.89547e-08
2.16398e-05
2.91589e-08
2.16384e-05
2.93949e-08
2.1637e-05
2.96572e-08
2.16355e-05
2.99352e-08
2.16339e-05
3.02319e-08
2.16322e-05
3.05703e-08
2.16305e-05
3.09618e-08
2.16287e-05
3.13683e-08
2.16269e-05
3.1735e-08
2.1625e-05
3.2046e-08
2.16231e-05
3.23328e-08
2.16212e-05
3.26128e-08
2.16193e-05
3.28401e-08
2.16173e-05
3.29382e-08
2.16153e-05
3.29273e-08
2.16133e-05
3.29372e-08
2.16111e-05
3.30221e-08
2.16089e-05
3.31291e-08
2.16066e-05
3.33053e-08
2.16042e-05
3.37061e-08
2.16016e-05
3.43489e-08
2.15988e-05
3.51194e-08
2.15959e-05
3.59745e-08
2.15929e-05
3.69015e-08
2.15898e-05
3.77602e-08
2.15867e-05
3.83615e-08
2.15836e-05
3.8605e-08
2.15806e-05
3.84525e-08
2.15777e-05
3.79271e-08
2.15749e-05
3.71763e-08
2.15721e-05
3.64392e-08
2.15693e-05
3.59449e-08
2.15663e-05
3.58828e-08
2.1563e-05
3.6414e-08
2.15595e-05
3.75725e-08
2.15556e-05
3.9123e-08
2.15515e-05
4.0605e-08
2.15472e-05
4.16226e-08
2.15427e-05
4.20983e-08
2.15381e-05
4.22167e-08
2.15336e-05
4.22227e-08
2.15292e-05
4.23196e-08
2.15248e-05
4.26386e-08
2.15204e-05
4.31515e-08
2.15159e-05
4.3654e-08
2.15112e-05
4.39689e-08
2.15065e-05
4.41369e-08
2.15017e-05
4.43303e-08
2.14969e-05
4.46057e-08
2.1492e-05
4.48628e-08
2.14871e-05
4.50579e-08
2.14821e-05
4.53202e-08
2.1477e-05
4.57791e-08
2.14717e-05
4.63363e-08
2.14663e-05
4.67423e-08
2.14608e-05
4.69295e-08
2.14552e-05
4.71385e-08
2.14495e-05
4.7627e-08
2.14436e-05
4.83021e-08
2.14377e-05
4.87625e-08
2.14317e-05
4.87753e-08
2.14257e-05
4.86193e-08
2.14195e-05
4.88133e-08
2.14132e-05
4.9515e-08
2.14069e-05
5.0278e-08
2.14007e-05
5.04237e-08
2.13946e-05
4.96963e-08
2.13887e-05
4.85674e-08
2.13827e-05
4.78379e-08
2.13767e-05
4.79552e-08
2.1371e-05
4.86255e-08
2.13657e-05
4.88795e-08
2.13611e-05
4.75091e-08
2.13577e-05
4.36341e-08
2.13557e-05
3.70873e-08
2.13554e-05
2.84941e-08
2.13571e-05
1.90272e-08
2.13605e-05
9.92068e-09
2.13657e-05
2.12559e-09
2.1373e-05
-4.35281e-09
2.1382e-05
-9.01669e-09
2.13925e-05
-1.21117e-08
2.14041e-05
-1.38478e-08
2.14163e-05
-1.44244e-08
2.14284e-05
-1.40917e-08
2.14398e-05
-1.30502e-08
2.14501e-05
-1.15642e-08
2.14589e-05
-9.80518e-09
2.14663e-05
-8.02055e-09
2.14721e-05
-6.28989e-09
2.14765e-05
-4.80005e-09
2.14798e-05
-3.50145e-09
2.14821e-05
-2.52721e-09
2.14837e-05
-1.71988e-09
2.14848e-05
-1.20334e-09
2.14855e-05
-7.61455e-10
2.14859e-05
-5.40578e-10
2.14862e-05
-3.14349e-10
2.14864e-05
-2.40521e-10
2.14865e-05
-1.32134e-10
2.14865e-05
-1.04666e-10
2.14866e-05
-7.23264e-11
2.14866e-05
-3.11421e-11
2.14866e-05
-6.62969e-11
2.14866e-05
2.11509e-11
2.14866e-05
-8.10619e-11
2.14866e-05
5.91253e-11
2.14866e-05
-9.24291e-11
2.14866e-05
7.38207e-11
2.14866e-05
-8.14956e-11
2.14866e-05
5.46172e-11
2.14866e-05
-3.88197e-11
2.14866e-05
3.25301e-12
2.14866e-05
2.43508e-11
2.14866e-05
-5.59173e-11
2.14866e-05
7.61465e-11
2.14866e-05
-8.6785e-11
2.14866e-05
8.17584e-11
2.14866e-05
-6.11861e-11
2.14866e-05
2.94177e-11
2.14866e-05
9.14045e-12
2.14866e-05
-4.19557e-11
2.14866e-05
6.53259e-11
2.14866e-05
-6.8984e-11
2.14866e-05
5.53256e-11
2.14866e-05
-2.2484e-11
2.14866e-05
-1.63696e-11
2.14866e-05
5.34518e-11
2.14866e-05
-7.4075e-11
2.14866e-05
7.53587e-11
2.14866e-05
-5.27322e-11
2.14866e-05
1.59272e-11
2.14866e-05
2.54669e-11
2.14866e-05
-5.45124e-11
2.14866e-05
6.40005e-11
2.14866e-05
-4.73101e-11
2.14866e-05
1.04168e-11
2.14866e-05
3.84109e-11
2.14866e-05
-8.1819e-11
2.14866e-05
1.08819e-10
2.14866e-05
-1.07196e-10
2.14866e-05
8.03283e-11
2.14866e-05
-3.49738e-11
2.14866e-05
-3.02376e-12
2.14866e-05
1.86703e-11
2.14866e-05
7.29298e-12
2.14866e-05
-5.40849e-11
2.14866e-05
1.11391e-10
2.14866e-05
-1.29051e-10
2.14866e-05
1.27497e-10
2.14866e-05
-8.28876e-11
2.14866e-05
8.93362e-11
2.14866e-05
-7.66437e-11
2.14866e-05
1.52121e-10
2.14866e-05
-1.21586e-10
2.14865e-05
2.00877e-10
2.14865e-05
-1.11359e-10
2.14865e-05
2.55205e-10
2.14865e-05
-4.9551e-11
4.88168e-10
2.35469e-05
6.09189e-09
2.35488e-05
6.28817e-09
2.35514e-05
6.91471e-09
2.35543e-05
7.90585e-09
2.35574e-05
9.15251e-09
2.35605e-05
1.05674e-08
2.35633e-05
1.20634e-08
2.35657e-05
1.35425e-08
2.35677e-05
1.49134e-08
2.35693e-05
1.61023e-08
2.35706e-05
1.70584e-08
2.35716e-05
1.77456e-08
2.35724e-05
1.81496e-08
2.3573e-05
1.82823e-08
2.35737e-05
1.82093e-08
2.35744e-05
1.80435e-08
2.35753e-05
1.79009e-08
2.35763e-05
1.78775e-08
2.35773e-05
1.80238e-08
2.35785e-05
1.83404e-08
2.35796e-05
1.8796e-08
2.35806e-05
1.93218e-08
2.35815e-05
1.98403e-08
2.35823e-05
2.02873e-08
2.3583e-05
2.06255e-08
2.35836e-05
2.08658e-08
2.35842e-05
2.10394e-08
2.35848e-05
2.11835e-08
2.35854e-05
2.13292e-08
2.3586e-05
2.14914e-08
2.35867e-05
2.16798e-08
2.35874e-05
2.18956e-08
2.35881e-05
2.21343e-08
2.35888e-05
2.2383e-08
2.35894e-05
2.26252e-08
2.359e-05
2.28649e-08
2.35906e-05
2.31087e-08
2.35912e-05
2.33577e-08
2.35918e-05
2.36033e-08
2.35923e-05
2.38203e-08
2.35929e-05
2.40062e-08
2.35934e-05
2.41833e-08
2.3594e-05
2.43734e-08
2.35946e-05
2.4595e-08
2.35952e-05
2.48454e-08
2.35958e-05
2.51032e-08
2.35963e-05
2.5349e-08
2.35969e-05
2.55841e-08
2.35975e-05
2.58307e-08
2.3598e-05
2.60975e-08
2.35986e-05
2.63704e-08
2.35992e-05
2.66292e-08
2.35997e-05
2.68552e-08
2.36003e-05
2.70539e-08
2.36009e-05
2.72654e-08
2.36015e-05
2.7516e-08
2.36021e-05
2.7784e-08
2.36026e-05
2.80297e-08
2.36031e-05
2.82417e-08
2.36037e-05
2.84392e-08
2.36042e-05
2.86444e-08
2.36047e-05
2.88752e-08
2.36052e-05
2.91361e-08
2.36057e-05
2.94188e-08
2.36062e-05
2.97147e-08
2.36068e-05
3.00336e-08
2.36074e-05
3.03934e-08
2.36079e-05
3.07745e-08
2.36086e-05
3.11224e-08
2.36092e-05
3.14087e-08
2.36099e-05
3.16676e-08
2.36105e-05
3.1939e-08
2.36112e-05
3.21925e-08
2.36118e-05
3.23421e-08
2.36123e-05
3.23826e-08
2.36128e-05
3.24365e-08
2.36133e-05
3.25761e-08
2.36137e-05
3.27434e-08
2.3614e-05
3.29465e-08
2.36144e-05
3.33221e-08
2.36148e-05
3.39042e-08
2.36154e-05
3.45819e-08
2.36161e-05
3.53061e-08
2.36169e-05
3.60881e-08
2.36178e-05
3.68297e-08
2.36188e-05
3.73711e-08
2.36198e-05
3.76295e-08
2.36206e-05
3.75826e-08
2.36213e-05
3.72508e-08
2.36217e-05
3.67491e-08
2.36219e-05
3.62625e-08
2.36219e-05
3.59614e-08
2.36218e-05
3.59876e-08
2.36217e-05
3.64727e-08
2.36218e-05
3.74595e-08
2.36222e-05
3.87822e-08
2.36227e-05
4.0085e-08
2.36233e-05
4.10348e-08
2.36239e-05
4.15307e-08
2.36244e-05
4.16958e-08
2.36249e-05
4.17318e-08
2.36254e-05
4.18212e-08
2.36259e-05
4.20918e-08
2.36265e-05
4.25423e-08
2.36272e-05
4.30119e-08
2.36278e-05
4.33355e-08
2.36284e-05
4.35206e-08
2.3629e-05
4.37104e-08
2.36297e-05
4.39739e-08
2.36303e-05
4.42384e-08
2.36309e-05
4.44559e-08
2.36315e-05
4.47205e-08
2.36321e-05
4.51501e-08
2.36328e-05
4.56799e-08
2.36334e-05
4.61001e-08
2.3634e-05
4.63332e-08
2.36346e-05
4.65607e-08
2.36352e-05
4.69987e-08
2.36359e-05
4.75949e-08
2.36367e-05
4.80404e-08
2.36373e-05
4.81327e-08
2.36379e-05
4.80621e-08
2.36385e-05
4.82181e-08
2.36392e-05
4.87368e-08
2.36402e-05
4.93041e-08
2.36412e-05
4.94117e-08
2.36421e-05
4.88353e-08
2.36428e-05
4.78765e-08
2.36435e-05
4.7109e-08
2.36445e-05
4.69072e-08
2.36461e-05
4.70779e-08
2.36482e-05
4.68177e-08
2.36506e-05
4.51064e-08
2.36529e-05
4.12442e-08
2.36549e-05
3.51675e-08
2.36559e-05
2.7422e-08
2.36561e-05
1.88742e-08
2.36556e-05
1.04184e-08
2.3655e-05
2.74122e-09
2.36539e-05
-3.32294e-09
2.36529e-05
-8.01024e-09
2.36521e-05
-1.12516e-08
2.36514e-05
-1.32172e-08
2.3651e-05
-1.4023e-08
2.36508e-05
-1.38725e-08
2.36507e-05
-1.29641e-08
2.36507e-05
-1.15567e-08
2.36508e-05
-9.84526e-09
2.36508e-05
-8.07458e-09
2.36509e-05
-6.35372e-09
2.36509e-05
-4.8537e-09
2.3651e-05
-3.55744e-09
2.3651e-05
-2.56683e-09
2.36511e-05
-1.76468e-09
2.36511e-05
-1.22921e-09
2.36511e-05
-7.96474e-10
2.36512e-05
-5.54312e-10
2.36512e-05
-3.40141e-10
2.36512e-05
-2.4422e-10
2.36512e-05
-1.48747e-10
2.36512e-05
-1.01413e-10
2.36512e-05
-8.03486e-11
2.36512e-05
-2.51772e-11
2.36512e-05
-6.63264e-11
2.36512e-05
2.5556e-11
2.36512e-05
-7.21207e-11
2.36512e-05
5.74788e-11
2.36512e-05
-7.38333e-11
2.36512e-05
6.3881e-11
2.36512e-05
-5.49482e-11
2.36512e-05
3.86997e-11
2.36511e-05
-1.01635e-11
2.36512e-05
-1.199e-11
2.36511e-05
4.77615e-11
2.36511e-05
-6.41399e-11
2.36511e-05
8.74016e-11
2.36511e-05
-8.1509e-11
2.36511e-05
7.75033e-11
2.36511e-05
-4.4837e-11
2.36511e-05
1.8541e-11
2.36511e-05
2.38647e-11
2.36511e-05
-4.67678e-11
2.36511e-05
6.81276e-11
2.36511e-05
-5.9195e-11
2.36511e-05
4.21652e-11
2.36511e-05
-2.41287e-12
2.36511e-05
-3.32017e-11
2.36511e-05
6.94128e-11
2.36511e-05
-8.16144e-11
2.36511e-05
7.79057e-11
2.36511e-05
-4.89655e-11
2.36511e-05
1.38831e-11
2.36511e-05
2.43625e-11
2.36511e-05
-4.51051e-11
2.36511e-05
4.70027e-11
2.36511e-05
-2.19378e-11
2.36511e-05
-1.74604e-11
2.36511e-05
6.56741e-11
2.36511e-05
-1.02962e-10
2.36511e-05
1.2265e-10
2.36511e-05
-1.13098e-10
2.36511e-05
8.39583e-11
2.36511e-05
-4.05661e-11
2.36511e-05
1.0044e-11
2.36511e-05
-3.60952e-13
2.36511e-05
3.1953e-11
2.36511e-05
-7.70571e-11
2.36511e-05
1.31261e-10
2.36511e-05
-1.38712e-10
2.36511e-05
1.34024e-10
2.36511e-05
-8.16419e-11
2.36511e-05
9.08488e-11
2.36511e-05
-6.71583e-11
2.36511e-05
1.44277e-10
2.36511e-05
-9.67841e-11
2.36511e-05
1.81122e-10
2.3651e-05
-6.50325e-11
2.36511e-05
2.22171e-10
2.3651e-05
1.97053e-11
4.29752e-10
2.56325e-05
4.42426e-09
2.56345e-05
4.25585e-09
2.56369e-05
4.5585e-09
2.56394e-05
5.33353e-09
2.56421e-05
6.50075e-09
2.56447e-05
7.96544e-09
2.56471e-05
9.61586e-09
2.56493e-05
1.13203e-08
2.56513e-05
1.29467e-08
2.5653e-05
1.43849e-08
2.56545e-05
1.55636e-08
2.56558e-05
1.64445e-08
2.5657e-05
1.70221e-08
2.56579e-05
1.73135e-08
2.56588e-05
1.73703e-08
2.56595e-05
1.72836e-08
2.56603e-05
1.71554e-08
2.56611e-05
1.70831e-08
2.56619e-05
1.71357e-08
2.56629e-05
1.73464e-08
2.5664e-05
1.77177e-08
2.56651e-05
1.82129e-08
2.56662e-05
1.87713e-08
2.56672e-05
1.93135e-08
2.5668e-05
1.97706e-08
2.56688e-05
2.01198e-08
2.56694e-05
2.03752e-08
2.56701e-05
2.05693e-08
2.56707e-05
2.07262e-08
2.56713e-05
2.08617e-08
2.5672e-05
2.10008e-08
2.56727e-05
2.11667e-08
2.56735e-05
2.13748e-08
2.56742e-05
2.1619e-08
2.5675e-05
2.18806e-08
2.56757e-05
2.21545e-08
2.56763e-05
2.24361e-08
2.5677e-05
2.27181e-08
2.56776e-05
2.29855e-08
2.56782e-05
2.32122e-08
2.56788e-05
2.33929e-08
2.56795e-05
2.35499e-08
2.56801e-05
2.3719e-08
2.56808e-05
2.39301e-08
2.56814e-05
2.41842e-08
2.56821e-05
2.4453e-08
2.56827e-05
2.4705e-08
2.56834e-05
2.49433e-08
2.5684e-05
2.51938e-08
2.56846e-05
2.54608e-08
2.56853e-05
2.57282e-08
2.56859e-05
2.59755e-08
2.56866e-05
2.61885e-08
2.56873e-05
2.63841e-08
2.56879e-05
2.65983e-08
2.56886e-05
2.68459e-08
2.56893e-05
2.71101e-08
2.569e-05
2.73668e-08
2.56906e-05
2.76003e-08
2.56912e-05
2.78083e-08
2.56919e-05
2.80114e-08
2.56925e-05
2.82349e-08
2.56931e-05
2.84895e-08
2.56938e-05
2.8773e-08
2.56944e-05
2.90673e-08
2.56951e-05
2.93655e-08
2.56958e-05
2.96939e-08
2.56965e-05
3.0052e-08
2.56973e-05
3.03808e-08
2.5698e-05
3.06426e-08
2.56988e-05
3.0874e-08
2.56996e-05
3.11287e-08
2.57004e-05
3.13956e-08
2.57012e-05
3.15899e-08
2.57019e-05
3.16754e-08
2.57026e-05
3.1758e-08
2.57032e-05
3.19348e-08
2.57038e-05
3.21517e-08
2.57044e-05
3.2376e-08
2.5705e-05
3.27238e-08
2.57056e-05
3.32467e-08
2.57064e-05
3.38371e-08
2.57073e-05
3.44334e-08
2.57083e-05
3.50633e-08
2.57094e-05
3.56727e-08
2.57107e-05
3.6136e-08
2.57119e-05
3.63883e-08
2.57131e-05
3.64274e-08
2.5714e-05
3.6281e-08
2.57148e-05
3.6032e-08
2.57152e-05
3.58037e-08
2.57155e-05
3.57194e-08
2.57155e-05
3.58927e-08
2.57156e-05
3.63966e-08
2.57159e-05
3.72038e-08
2.57165e-05
3.81788e-08
2.57174e-05
3.91265e-08
2.57186e-05
3.98752e-08
2.57198e-05
4.0359e-08
2.57208e-05
4.0636e-08
2.57217e-05
4.0825e-08
2.57225e-05
4.10273e-08
2.57233e-05
4.12984e-08
2.57242e-05
4.16295e-08
2.57253e-05
4.1956e-08
2.57264e-05
4.22224e-08
2.57275e-05
4.24399e-08
2.57285e-05
4.26639e-08
2.57296e-05
4.29095e-08
2.57307e-05
4.31502e-08
2.57318e-05
4.33932e-08
2.57328e-05
4.36961e-08
2.57338e-05
4.4093e-08
2.5735e-05
4.45182e-08
2.57362e-05
4.48668e-08
2.57374e-05
4.51324e-08
2.57386e-05
4.54332e-08
2.57397e-05
4.58577e-08
2.5741e-05
4.63265e-08
2.57424e-05
4.6651e-08
2.57437e-05
4.67486e-08
2.5745e-05
4.67809e-08
2.57462e-05
4.69871e-08
2.57476e-05
4.73931e-08
2.57492e-05
4.77327e-08
2.57509e-05
4.76685e-08
2.57526e-05
4.71044e-08
2.57542e-05
4.6295e-08
2.57557e-05
4.56274e-08
2.57573e-05
4.52843e-08
2.57594e-05
4.50212e-08
2.5762e-05
4.42179e-08
2.57649e-05
4.21801e-08
2.57677e-05
3.8436e-08
2.577e-05
3.29185e-08
2.57714e-05
2.60213e-08
2.57718e-05
1.84793e-08
2.57711e-05
1.11137e-08
2.57693e-05
4.51824e-09
2.57671e-05
-1.1714e-09
2.57648e-05
-5.66111e-09
2.57624e-05
-8.82822e-09
2.576e-05
-1.08096e-08
2.57577e-05
-1.17356e-08
2.57556e-05
-1.1812e-08
2.57539e-05
-1.12138e-08
2.57525e-05
-1.01673e-08
2.57515e-05
-8.82761e-09
2.57508e-05
-7.40194e-09
2.57504e-05
-5.97393e-09
2.57502e-05
-4.69601e-09
2.57502e-05
-3.55651e-09
2.57503e-05
-2.65415e-09
2.57505e-05
-1.90105e-09
2.57506e-05
-1.36783e-09
2.57507e-05
-9.33516e-10
2.57508e-05
-6.58257e-10
2.57509e-05
-4.33914e-10
2.5751e-05
-2.98584e-10
2.5751e-05
-2.01486e-10
2.57511e-05
-1.19655e-10
2.57511e-05
-1.05338e-10
2.57511e-05
-2.48548e-11
2.57511e-05
-7.19875e-11
2.57511e-05
2.80504e-11
2.57511e-05
-6.2151e-11
2.57511e-05