/*--------------------------------*- C++ -*----------------------------------*\
| =========                 |                                                 |
| \\      /  F ield         | OpenFOAM: The Open Source CFD Toolbox           |
|  \\    /   O peration     | Version:  v1906                                 |
|   \\  /    A nd           | Web:      www.OpenFOAM.com                      |
|    \\/     M anipulation  |                                                 |
\*---------------------------------------------------------------------------*/
FoamFile
{
    version     2.0;
    format      ascii;
    class       volVectorField;
    location    "0.5";
    object      U;
}
// * * * * * * * * * * * * * * * * * * * * * * * * * * * * * * * * * * * * * //

dimensions      [0 1 -1 0 0 0 0];


internalField   nonuniform List<vector> 
4800
(
(0.997587 -1.97054e-06 0)
(1.00221 -2.78137e-05 0)
(0.997898 -2.10872e-05 0)
(1.00179 -1.29255e-05 0)
(0.99811 1.14752e-05 0)
(1.0014 1.28302e-05 0)
(0.998287 -3.88651e-06 0)
(1.0011 -3.34217e-05 0)
(0.998499 -4.75269e-05 0)
(1.00095 -5.8648e-05 0)
(0.998856 -1.83295e-05 0)
(1.00109 5.28567e-05 0)
(0.999501 0.000149104 0)
(1.00157 0.000225409 0)
(1.00034 0.000275538 0)
(1.00214 0.000290554 0)
(1.00106 0.000292871 0)
(1.00247 0.000288326 0)
(1.00137 0.00029737 0)
(1.00228 0.000323062 0)
(0.999941 -2.10695e-06 0)
(1.00003 -3.63372e-05 0)
(0.999912 -2.67739e-05 0)
(0.999942 -2.00459e-05 0)
(0.999828 1.53371e-05 0)
(0.999816 2.04899e-05 0)
(0.999725 5.79538e-06 0)
(0.999739 -2.64587e-05 0)
(0.999725 -2.67152e-05 0)
(0.999825 6.16109e-06 0)
(0.999961 0.000107114 0)
(1.00021 0.00024142 0)
(1.00049 0.000379479 0)
(1.00083 0.000468353 0)
(1.00114 0.000513503 0)
(1.00145 0.000510785 0)
(1.0017 0.00049314 0)
(1.00188 0.000470803 0)
(1.00195 0.00046868 0)
(1.00185 0.000488219 0)
(0.999999 -1.47747e-06 0)
(0.999987 -1.31043e-05 0)
(0.999956 -1.48612e-05 0)
(0.999916 -1.91218e-05 0)
(0.999864 -1.27452e-05 0)
(0.999799 1.0551e-05 0)
(0.999748 4.49231e-05 0)
(0.999733 6.31865e-05 0)
(0.999769 0.000104176 0)
(0.99987 0.000183897 0)
(1.00004 0.000283583 0)
(1.00027 0.000378901 0)
(1.00053 0.00044184 0)
(1.00083 0.00046557 0)
(1.00113 0.000457098 0)
(1.00142 0.000430146 0)
(1.00167 0.000397589 0)
(1.00185 0.000368031 0)
(1.00193 0.000346608 0)
(1.00185 0.000334725 0)
(1 4.99292e-08 0)
(0.999986 -9.94226e-06 0)
(0.999956 -1.29717e-05 0)
(0.999915 -1.49629e-05 0)
(0.999871 -1.4202e-05 0)
(0.99982 1.82283e-05 0)
(0.999771 8.43514e-05 0)
(0.999755 0.00015052 0)
(0.9998 0.000222011 0)
(0.99991 0.000293165 0)
(1.00008 0.00036206 0)
(1.0003 0.000414313 0)
(1.00056 0.000451028 0)
(1.00083 0.00046744 0)
(1.00112 0.000462261 0)
(1.0014 0.000440565 0)
(1.00165 0.000409994 0)
(1.00183 0.000374822 0)
(1.00191 0.000340876 0)
(1.00184 0.000311946 0)
(1 -1.61046e-07 0)
(0.999986 -4.84364e-06 0)
(0.999957 -5.59349e-06 0)
(0.999918 3.35055e-06 0)
(0.999879 1.92337e-05 0)
(0.99984 4.79711e-05 0)
(0.999807 0.000112816 0)
(0.9998 0.000206285 0)
(0.999843 0.000306176 0)
(0.999948 0.000386948 0)
(1.00011 0.000447564 0)
(1.00033 0.000483881 0)
(1.00057 0.000504883 0)
(1.00084 0.000507319 0)
(1.00111 0.000494598 0)
(1.00137 0.000463666 0)
(1.0016 0.000419931 0)
(1.00178 0.000365954 0)
(1.00186 0.000308428 0)
(1.00179 0.00025197 0)
(1 1.46663e-06 0)
(0.999986 3.00236e-07 0)
(0.99996 6.00438e-06 0)
(0.999925 1.90349e-05 0)
(0.99989 4.94921e-05 0)
(0.999862 8.77309e-05 0)
(0.999846 0.000155097 0)
(0.999854 0.00024792 0)
(0.999901 0.000356381 0)
(0.999995 0.00044958 0)
(1.00014 0.000515357 0)
(1.00034 0.000545555 0)
(1.00057 0.000549888 0)
(1.00082 0.000531862 0)
(1.00108 0.000499585 0)
(1.00132 0.000452777 0)
(1.00154 0.00039607 0)
(1.0017 0.000330493 0)
(1.00177 0.000261732 0)
(1.0017 0.000193883 0)
(1 3.55073e-06 0)
(0.999987 6.00333e-06 0)
(0.999963 1.997e-05 0)
(0.999934 4.0125e-05 0)
(0.999908 7.9389e-05 0)
(0.999889 0.000133014 0)
(0.999887 0.000205267 0)
(0.999909 0.000291978 0)
(0.999962 0.000388807 0)
(1.00005 0.00047901 0)
(1.00018 0.000546207 0)
(1.00035 0.000576813 0)
(1.00056 0.000573257 0)
(1.00079 0.000541347 0)
(1.00103 0.000492648 0)
(1.00126 0.000432184 0)
(1.00146 0.000365754 0)
(1.0016 0.000294368 0)
(1.00166 0.000222809 0)
(1.0016 0.00015443 0)
(1 5.51294e-06 0)
(0.999989 1.49366e-05 0)
(0.99997 3.31365e-05 0)
(0.999947 6.42802e-05 0)
(0.99993 0.000110035 0)
(0.999922 0.000170977 0)
(0.99993 0.000246156 0)
(0.999961 0.000326126 0)
(1.00002 0.000408055 0)
(1.0001 0.000482772 0)
(1.00021 0.000542888 0)
(1.00036 0.000574356 0)
(1.00054 0.000573554 0)
(1.00074 0.00054229 0)
(1.00096 0.00048983 0)
(1.00117 0.000422694 0)
(1.00136 0.000348912 0)
(1.00149 0.000271719 0)
(1.00155 0.000196604 0)
(1.00149 0.000127434 0)
(1 8.49489e-06 0)
(0.999991 2.37183e-05 0)
(0.999978 4.95289e-05 0)
(0.999963 8.68865e-05 0)
(0.999955 0.000138603 0)
(0.999958 0.00019921 0)
(0.999974 0.000271759 0)
(1.00001 0.000345576 0)
(1.00007 0.000415737 0)
(1.00015 0.000475609 0)
(1.00025 0.000524126 0)
(1.00037 0.000552604 0)
(1.00052 0.000557197 0)
(1.00069 0.000533199 0)
(1.00088 0.00048561 0)
(1.00107 0.000418428 0)
(1.00124 0.000340842 0)
(1.00136 0.000258883 0)
(1.00142 0.000180653 0)
(1.00137 0.000111107 0)
(1 1.09309e-05 0)
(0.999994 3.4636e-05 0)
(0.999987 6.49792e-05 0)
(0.99998 0.000106896 0)
(0.99998 0.000160357 0)
(0.999991 0.000219594 0)
(1.00001 0.000285292 0)
(1.00005 0.00035105 0)
(1.00011 0.000411821 0)
(1.00018 0.000461158 0)
(1.00027 0.000498543 0)
(1.00038 0.000520691 0)
(1.0005 0.000525392 0)
(1.00064 0.000507188 0)
(1.0008 0.000466856 0)
(1.00095 0.000406355 0)
(1.0011 0.000332977 0)
(1.00121 0.000252935 0)
(1.00127 0.000175517 0)
(1.00124 0.000106797 0)
(1 1.43967e-05 0)
(0.999997 4.38593e-05 0)
(0.999996 7.90506e-05 0)
(0.999998 0.000122491 0)
(1.00001 0.000174791 0)
(1.00002 0.000231187 0)
(1.00005 0.000289651 0)
(1.00009 0.000346085 0)
(1.00014 0.00039795 0)
(1.00021 0.000438747 0)
(1.00029 0.000467751 0)
(1.00038 0.000482838 0)
(1.00048 0.00048402 0)
(1.0006 0.000468725 0)
(1.00072 0.000436763 0)
(1.00085 0.000387854 0)
(1.00096 0.000326109 0)
(1.00106 0.000255821 0)
(1.00111 0.000184816 0)
(1.0011 0.000119753 0)
(1 1.68138e-05 0)
(1 5.17623e-05 0)
(1 9.05829e-05 0)
(1.00001 0.000133465 0)
(1.00003 0.00018315 0)
(1.00005 0.000234131 0)
(1.00008 0.00028492 0)
(1.00012 0.000332403 0)
(1.00017 0.000375151 0)
(1.00023 0.000408206 0)
(1.0003 0.000431111 0)
(1.00038 0.000441122 0)
(1.00046 0.000440124 0)
(1.00055 0.000426295 0)
(1.00065 0.00040079 0)
(1.00075 0.000362593 0)
(1.00084 0.000314077 0)
(1.00092 0.000257069 0)
(1.00096 0.000197364 0)
(1.00095 0.000140191 0)
(1 1.92558e-05 0)
(1 5.74422e-05 0)
(1.00001 9.73187e-05 0)
(1.00003 0.000139004 0)
(1.00005 0.000184052 0)
(1.00007 0.000228945 0)
(1.0001 0.000272838 0)
(1.00014 0.000311945 0)
(1.00019 0.000346051 0)
(1.00024 0.000372324 0)
(1.0003 0.000390075 0)
(1.00037 0.000397518 0)
(1.00044 0.000395536 0)
(1.00051 0.000383491 0)
(1.00059 0.000362611 0)
(1.00066 0.000332297 0)
(1.00073 0.000294851 0)
(1.00079 0.000250832 0)
(1.00082 0.000204155 0)
(1.00081 0.00015825 0)
(1 2.04506e-05 0)
(1.00001 5.98691e-05 0)
(1.00002 0.000100234 0)
(1.00004 0.000139435 0)
(1.00006 0.000179015 0)
(1.00009 0.00021775 0)
(1.00012 0.000254243 0)
(1.00016 0.000285867 0)
(1.0002 0.000312975 0)
(1.00025 0.000333191 0)
(1.0003 0.000346878 0)
(1.00035 0.000352405 0)
(1.00041 0.000350511 0)
(1.00047 0.000340445 0)
(1.00053 0.000323554 0)
(1.00058 0.000299695 0)
(1.00064 0.000270639 0)
(1.00068 0.000237403 0)
(1.0007 0.000202481 0)
(1.00069 0.000168387 0)
(1 2.06438e-05 0)
(1.00001 6.00361e-05 0)
(1.00002 9.79864e-05 0)
(1.00004 0.00013395 0)
(1.00007 0.000168634 0)
(1.0001 0.000200893 0)
(1.00013 0.000230546 0)
(1.00017 0.000256048 0)
(1.0002 0.00027709 0)
(1.00025 0.000292748 0)
(1.00029 0.000303107 0)
(1.00033 0.000307168 0)
(1.00038 0.000305562 0)
(1.00042 0.000297638 0)
(1.00047 0.000284372 0)
(1.00051 0.000266047 0)
(1.00055 0.000244028 0)
(1.00058 0.000219376 0)
(1.00059 0.000194131 0)
(1.00059 0.000169971 0)
(1 1.97135e-05 0)
(1.00001 5.68525e-05 0)
(1.00002 9.14916e-05 0)
(1.00005 0.000123771 0)
(1.00007 0.000153134 0)
(1.0001 0.000179594 0)
(1.00014 0.000203399 0)
(1.00017 0.000223398 0)
(1.0002 0.000239639 0)
(1.00024 0.000251423 0)
(1.00028 0.000259024 0)
(1.00031 0.00026214 0)
(1.00035 0.000260959 0)
(1.00038 0.000255456 0)
(1.00042 0.000246064 0)
(1.00045 0.000232913 0)
(1.00048 0.000217132 0)
(1.0005 0.000199445 0)
(1.00051 0.000181583 0)
(1.00051 0.000164746 0)
(1 1.76917e-05 0)
(1.00001 5.10545e-05 0)
(1.00003 8.11956e-05 0)
(1.00005 0.000108449 0)
(1.00008 0.000132901 0)
(1.00011 0.000154289 0)
(1.00014 0.00017292 0)
(1.00017 0.000188449 0)
(1.0002 0.000200876 0)
(1.00023 0.000209824 0)
(1.00026 0.000215519 0)
(1.00029 0.000217765 0)
(1.00032 0.000217044 0)
(1.00035 0.0002133 0)
(1.00038 0.000207045 0)
(1.0004 0.000198478 0)
(1.00042 0.000188291 0)
(1.00044 0.000177088 0)
(1.00044 0.000165864 0)
(1.00044 0.000155508 0)
(1 1.49568e-05 0)
(1.00001 4.28939e-05 0)
(1.00003 6.75101e-05 0)
(1.00005 8.92263e-05 0)
(1.00008 0.000108281 0)
(1.0001 0.000124459 0)
(1.00013 0.000138211 0)
(1.00016 0.000149551 0)
(1.00019 0.000158649 0)
(1.00022 0.000165298 0)
(1.00025 0.000169614 0)
(1.00027 0.000171527 0)
(1.0003 0.000171272 0)
(1.00032 0.000168908 0)
(1.00034 0.000164804 0)
(1.00036 0.00015915 0)
(1.00038 0.000152435 0)
(1.00039 0.000145048 0)
(1.0004 0.000137715 0)
(1.0004 0.000131033 0)
(1 1.19995e-05 0)
(1.00001 3.4681e-05 0)
(1.00003 5.48547e-05 0)
(1.00005 7.25283e-05 0)
(1.00007 8.80567e-05 0)
(1.0001 0.000101332 0)
(1.00013 0.000112629 0)
(1.00016 0.000122035 0)
(1.00019 0.000129845 0)
(1.00021 0.000135977 0)
(1.00024 0.00014055 0)
(1.00026 0.000143479 0)
(1.00028 0.000144931 0)
(1.0003 0.000144879 0)
(1.00031 0.000143479 0)
(1.00033 0.000140714 0)
(1.00034 0.000136832 0)
(1.00035 0.000132084 0)
(1.00035 0.000127029 0)
(1.00036 0.000122184 0)
(1 5.27429e-06 0)
(1.00001 1.55086e-05 0)
(1.00003 2.48527e-05 0)
(1.00005 3.31924e-05 0)
(1.00007 4.06485e-05 0)
(1.0001 4.71724e-05 0)
(1.00013 5.2841e-05 0)
(1.00016 5.76804e-05 0)
(1.00018 6.18031e-05 0)
(1.00021 6.51977e-05 0)
(1.00023 6.79156e-05 0)
(1.00025 6.9924e-05 0)
(1.00027 7.12916e-05 0)
(1.00028 7.20087e-05 0)
(1.0003 7.21591e-05 0)
(1.00031 7.17411e-05 0)
(1.00032 7.08337e-05 0)
(1.00032 6.95147e-05 0)
(1.00033 6.79704e-05 0)
(1.00033 6.6397e-05 0)
(1.00091 0.000375229 0)
(0.999385 0.00044953 0)
(0.997795 0.000530501 0)
(0.996289 0.000602881 0)
(0.994922 0.000661322 0)
(0.99371 0.000705447 0)
(0.992651 0.000736673 0)
(0.991725 0.000758033 0)
(0.990895 0.000772776 0)
(0.990123 0.000783254 0)
(0.989371 0.000790317 0)
(0.988609 0.000794076 0)
(0.987811 0.000794528 0)
(0.986964 0.000792617 0)
(0.986059 0.000789995 0)
(0.985099 0.000788163 0)
(0.984093 0.000788182 0)
(0.983053 0.000790487 0)
(0.981994 0.000794918 0)
(0.980927 0.000800846 0)
(0.97986 0.000807325 0)
(0.978799 0.000813185 0)
(0.977741 0.000817452 0)
(0.976682 0.000819803 0)
(0.975619 0.00082058 0)
(0.974549 0.00082051 0)
(0.973479 0.00082024 0)
(0.97241 0.000820165 0)
(0.97134 0.000820519 0)
(0.970257 0.000821464 0)
(0.969146 0.000823014 0)
(0.968004 0.000824921 0)
(0.966841 0.000826671 0)
(0.965674 0.000827761 0)
(0.96452 0.00082811 0)
(0.963377 0.00082799 0)
(0.962227 0.000827905 0)
(0.961053 0.000828166 0)
(0.959846 0.000828594 0)
(0.958622 0.000828772 0)
(0.957403 0.000828628 0)
(0.956204 0.000828306 0)
(0.955015 0.000827989 0)
(0.953809 0.000828123 0)
(0.952564 0.000828864 0)
(0.951285 0.000829941 0)
(0.95 0.000830903 0)
(0.948727 0.000831201 0)
(0.947465 0.000831212 0)
(0.946191 0.00083191 0)
(0.944886 0.000833233 0)
(0.943557 0.000834442 0)
(0.942224 0.000834849 0)
(0.940897 0.000833986 0)
(0.939571 0.000832609 0)
(0.938229 0.000831895 0)
(0.936859 0.000831628 0)
(0.935467 0.000830608 0)
(0.934076 0.000828359 0)
(0.932699 0.000825726 0)
(0.931325 0.000823738 0)
(0.929929 0.000822795 0)
(0.928505 0.000822783 0)
(0.927071 0.000823235 0)
(0.925642 0.000823851 0)
(0.924208 0.000825419 0)
(0.92275 0.000828717 0)
(0.92126 0.000832591 0)
(0.919754 0.000835282 0)
(0.91825 0.00083652 0)
(0.916742 0.000836664 0)
(0.915209 0.000835728 0)
(0.913648 0.000833349 0)
(0.912082 0.000828191 0)
(0.910533 0.000819916 0)
(0.908991 0.000811588 0)
(0.907435 0.000805564 0)
(0.905872 0.000800609 0)
(0.904322 0.000797188 0)
(0.90277 0.000799058 0)
(0.901185 0.000807122 0)
(0.899568 0.000818404 0)
(0.897926 0.000831067 0)
(0.896251 0.000844248 0)
(0.894529 0.000854879 0)
(0.892766 0.000859353 0)
(0.890982 0.000855627 0)
(0.889193 0.000842832 0)
(0.887418 0.000822114 0)
(0.885673 0.000798037 0)
(0.883967 0.000776421 0)
(0.882293 0.000761254 0)
(0.880637 0.000755383 0)
(0.878983 0.000761407 0)
(0.877304 0.00077887 0)
(0.875569 0.000801179 0)
(0.873762 0.000817976 0)
(0.871899 0.000822808 0)
(0.870012 0.000817875 0)
(0.868122 0.000810358 0)
(0.86623 0.000805896 0)
(0.864332 0.000806256 0)
(0.862421 0.00081017 0)
(0.860487 0.000814228 0)
(0.858529 0.00081441 0)
(0.856554 0.000809763 0)
(0.854575 0.000803959 0)
(0.852593 0.00080083 0)
(0.850601 0.000799688 0)
(0.848595 0.000797269 0)
(0.84658 0.000793403 0)
(0.84456 0.000791495 0)
(0.842529 0.000792842 0)
(0.840475 0.00079361 0)
(0.838401 0.000789942 0)
(0.836319 0.000783969 0)
(0.834237 0.000781679 0)
(0.832145 0.000784869 0)
(0.830026 0.000787764 0)
(0.827878 0.00078352 0)
(0.825722 0.000772961 0)
(0.823578 0.000764748 0)
(0.821443 0.000765973 0)
(0.81929 0.000773931 0)
(0.817097 0.000777521 0)
(0.814872 0.000766749 0)
(0.812656 0.000742672 0)
(0.810489 0.00071851 0)
(0.808376 0.000709347 0)
(0.80628 0.000719421 0)
(0.804151 0.000736865 0)
(0.80197 0.000738741 0)
(0.799773 0.000703873 0)
(0.797655 0.00062573 0)
(0.795739 0.000515432 0)
(0.794134 0.000394712 0)
(0.792906 0.000285029 0)
(0.792061 0.00020005 0)
(0.791559 0.000139073 0)
(0.791321 9.43433e-05 0)
(0.791267 6.99802e-05 0)
(0.791319 6.09472e-05 0)
(0.791424 6.16969e-05 0)
(0.791541 6.55334e-05 0)
(0.791654 6.75386e-05 0)
(0.791745 6.66696e-05 0)
(0.79182 6.18788e-05 0)
(0.791872 5.50808e-05 0)
(0.791915 4.61739e-05 0)
(0.791939 3.7725e-05 0)
(0.791964 2.89307e-05 0)
(0.791974 2.21388e-05 0)
(0.791991 1.55912e-05 0)
(0.791991 1.14083e-05 0)
(0.792006 7.28964e-06 0)
(0.792001 5.22275e-06 0)
(0.792016 2.91293e-06 0)
(0.792007 2.08571e-06 0)
(0.792023 9.38886e-07 0)
(0.792011 6.21276e-07 0)
(0.792029 2.44145e-07 0)
(0.792013 -5.97459e-08 0)
(0.792033 1.55952e-07 0)
(0.792014 -3.86889e-07 0)
(0.792037 2.45091e-07 0)
(0.792014 -5.59647e-07 0)
(0.792041 3.91515e-07 0)
(0.792013 -6.73431e-07 0)
(0.792045 5.03938e-07 0)
(0.79201 -6.74241e-07 0)
(0.79205 4.53151e-07 0)
(0.792007 -4.69866e-07 0)
(0.792054 1.7775e-07 0)
(0.792004 -1.02222e-07 0)
(0.792056 -1.39379e-07 0)
(0.792004 2.16708e-07 0)
(0.792056 -4.05479e-07 0)
(0.792005 4.27168e-07 0)
(0.792054 -4.58962e-07 0)
(0.792008 3.03748e-07 0)
(0.792051 -1.34354e-07 0)
(0.79201 -7.59407e-08 0)
(0.792051 2.1927e-07 0)
(0.792009 -3.61477e-07 0)
(0.792054 3.73277e-07 0)
(0.792005 -2.86912e-07 0)
(0.792057 7.28267e-08 0)
(0.792003 9.68851e-08 0)
(0.792059 -2.63916e-07 0)
(0.792003 3.48852e-07 0)
(0.792057 -3.1212e-07 0)
(0.792005 1.1018e-07 0)
(0.792057 1.43993e-07 0)
(0.792004 -3.39603e-07 0)
(0.792059 4.5083e-07 0)
(0.792 -4.33675e-07 0)
(0.792063 2.52167e-07 0)
(0.791997 1.12918e-08 0)
(0.792064 -2.41035e-07 0)
(0.791998 4.30561e-07 0)
(0.792062 -5.12941e-07 0)
(0.792 4.41183e-07 0)
(0.792061 -1.99993e-07 0)
(0.791999 -8.0159e-08 0)
(0.792063 2.492e-07 0)
(0.791996 -1.99086e-07 0)
(0.792067 -1.73708e-08 0)
(0.791994 3.66109e-07 0)
(0.792066 -6.19368e-07 0)
(0.791995 7.27823e-07 0)
(0.792064 -5.19796e-07 0)
(0.791993 5.15134e-07 0)
(0.792064 -4.57564e-07 0)
(0.791987 9.87465e-07 0)
(0.792059 -9.38219e-07 0)
(0.791981 1.56405e-06 0)
(0.792047 -1.08904e-06 0)
(0.791966 2.00275e-06 0)
(0.792024 -1.17381e-06 0)
(0.791935 3.93487e-06 0)
(1.00152 0.000540404 0)
(1.00095 0.00062226 0)
(1.00029 0.000718142 0)
(0.999701 0.000809645 0)
(0.999247 0.000888613 0)
(0.998955 0.000953544 0)
(0.998827 0.00100476 0)
(0.998843 0.00104423 0)
(0.998968 0.00107433 0)
(0.99916 0.00109676 0)
(0.999379 0.00111177 0)
(0.999594 0.00111862 0)
(0.999782 0.00111687 0)
(0.999929 0.00110771 0)
(1.00003 0.00109474 0)
(1.00008 0.00108219 0)
(1.0001 0.00107355 0)
(1.00009 0.00107094 0)
(1.00007 0.00107471 0)
(1.00004 0.00108369 0)
(1.00002 0.00109569 0)
(1.00001 0.00110769 0)
(1.00001 0.00111687 0)
(1.00001 0.00112179 0)
(1.00001 0.00112258 0)
(1.00002 0.00112075 0)
(1.00004 0.00111794 0)
(1.00006 0.0011153 0)
(1.00009 0.00111367 0)
(1.00011 0.00111353 0)
(1.00012 0.00111507 0)
(1.0001 0.00111782 0)
(1.00006 0.00112067 0)
(1.00003 0.0011226 0)
(1.00002 0.00112315 0)
(1.00002 0.00112292 0)
(1.00003 0.00112291 0)
(1.00002 0.0011236 0)
(0.999984 0.0011246 0)
(0.999938 0.00112489 0)
(0.999903 0.00112434 0)
(0.999894 0.00112354 0)
(0.999901 0.001123 0)
(0.999899 0.00112347 0)
(0.999867 0.00112497 0)
(0.99981 0.00112681 0)
(0.999752 0.00112816 0)
(0.999715 0.00112833 0)
(0.999696 0.0011282 0)
(0.999675 0.0011294 0)
(0.999633 0.0011319 0)
(0.999575 0.00113445 0)
(0.999521 0.00113553 0)
(0.999481 0.00113455 0)
(0.99945 0.00113328 0)
(0.999411 0.00113388 0)
(0.999353 0.0011358 0)
(0.999279 0.00113637 0)
(0.99921 0.00113445 0)
(0.99916 0.00113162 0)
(0.999118 0.00112993 0)
(0.999061 0.00112992 0)
(0.998983 0.00113076 0)
(0.998903 0.00113153 0)
(0.998834 0.00113218 0)
(0.998771 0.00113434 0)
(0.998697 0.00113929 0)
(0.998605 0.00114533 0)
(0.99851 0.00114957 0)
(0.99843 0.00115159 0)
(0.99836 0.00115335 0)
(0.998277 0.00115551 0)
(0.998176 0.00115603 0)
(0.998073 0.00115166 0)
(0.997987 0.00114298 0)
(0.997905 0.00113482 0)
(0.997807 0.00112872 0)
(0.997698 0.00112188 0)
(0.997597 0.00111568 0)
(0.997497 0.00111627 0)
(0.997377 0.0011248 0)
(0.997244 0.00113758 0)
(0.997113 0.00115369 0)
(0.996982 0.00117355 0)
(0.996842 0.00119323 0)
(0.996696 0.00120692 0)
(0.996551 0.00121116 0)
(0.996411 0.00120388 0)
(0.996275 0.00118447 0)
(0.996145 0.00115605 0)
(0.996019 0.00112478 0)
(0.995891 0.00109697 0)
(0.995756 0.00107848 0)
(0.995609 0.0010757 0)
(0.995451 0.00109271 0)
(0.995282 0.00112498 0)
(0.995099 0.00115895 0)
(0.994902 0.00118141 0)
(0.994696 0.00118864 0)
(0.994487 0.00118548 0)
(0.994278 0.00117874 0)
(0.99407 0.00117371 0)
(0.993865 0.00117416 0)
(0.993663 0.0011799 0)
(0.993459 0.00118541 0)
(0.993249 0.0011852 0)
(0.993032 0.00118009 0)
(0.992811 0.00117578 0)
(0.992589 0.00117492 0)
(0.992366 0.00117416 0)
(0.992142 0.00117029 0)
(0.991912 0.00116603 0)
(0.991677 0.00116673 0)
(0.991437 0.00117209 0)
(0.991193 0.00117511 0)
(0.990942 0.00117096 0)
(0.990685 0.00116413 0)
(0.990422 0.00116381 0)
(0.990154 0.00117182 0)
(0.989883 0.0011785 0)
(0.989609 0.0011737 0)
(0.989332 0.00115947 0)
(0.989049 0.00114905 0)
(0.98876 0.0011524 0)
(0.988468 0.00116443 0)
(0.988179 0.00116903 0)
(0.987897 0.0011544 0)
(0.98762 0.00112379 0)
(0.987343 0.0010923 0)
(0.987064 0.00107523 0)
(0.986789 0.00107605 0)
(0.986531 0.00108217 0)
(0.986304 0.00106987 0)
(0.986119 0.00101435 0)
(0.985992 0.000900564 0)
(0.985938 0.000731636 0)
(0.98597 0.000528577 0)
(0.986086 0.000320593 0)
(0.986285 0.000136496 0)
(0.986568 9.09223e-06 0)
(0.986947 -7.78192e-05 0)
(0.987399 -0.00013304 0)
(0.987921 -0.00016024 0)
(0.988472 -0.000165943 0)
(0.989044 -0.000157836 0)
(0.989585 -0.000140783 0)
(0.990099 -0.000120498 0)
(0.990533 -9.8739e-05 0)
(0.990921 -7.91786e-05 0)
(0.991208 -6.0971e-05 0)
(0.991461 -4.67977e-05 0)
(0.991615 -3.41445e-05 0)
(0.991765 -2.55896e-05 0)
(0.991826 -1.76853e-05 0)
(0.991916 -1.33019e-05 0)
(0.991922 -8.64131e-06 0)
(0.991983 -6.75405e-06 0)
(0.99196 -4.12121e-06 0)
(0.992012 -3.37994e-06 0)
(0.991974 -2.09317e-06 0)
(0.992023 -1.56593e-06 0)
(0.991979 -1.36407e-06 0)
(0.992026 -4.36346e-07 0)
(0.991981 -1.2936e-06 0)
(0.992027 3.88911e-07 0)
(0.991983 -1.46537e-06 0)
(0.992027 9.25288e-07 0)
(0.991983 -1.51306e-06 0)
(0.992026 1.03572e-06 0)
(0.991983 -1.22193e-06 0)
(0.992027 6.83329e-07 0)
(0.991981 -5.53487e-07 0)
(0.992029 -3.34423e-08 0)
(0.991979 3.34277e-07 0)
(0.992031 -8.33268e-07 0)
(0.991977 1.01401e-06 0)
(0.992031 -1.18226e-06 0)
(0.991977 1.01847e-06 0)
(0.992031 -7.66676e-07 0)
(0.991978 3.12246e-07 0)
(0.992029 1.27956e-07 0)
(0.991979 -5.81059e-07 0)
(0.992029 8.36006e-07 0)
(0.991979 -8.78901e-07 0)
(0.99203 6.5378e-07 0)
(0.991976 -2.63459e-07 0)
(0.992032 -2.22605e-07 0)
(0.991974 6.54907e-07 0)
(0.992034 -8.80884e-07 0)
(0.991973 8.26307e-07 0)
(0.992033 -5.10218e-07 0)
(0.991974 5.74031e-08 0)
(0.992032 3.99845e-07 0)
(0.991975 -7.35927e-07 0)
(0.992032 8.05848e-07 0)
(0.991975 -5.65398e-07 0)
(0.992033 1.11694e-07 0)
(0.991973 4.70889e-07 0)
(0.992035 -9.58472e-07 0)
(0.991972 1.20339e-06 0)
(0.992035 -1.10079e-06 0)
(0.991972 7.32619e-07 0)
(0.992034 -2.28438e-07 0)
(0.991973 -1.40196e-07 0)
(0.992035 2.54062e-07 0)
(0.991972 5.71324e-08 0)
(0.992035 -5.97237e-07 0)
(0.991971 1.1968e-06 0)
(0.992035 -1.35225e-06 0)
(0.991971 1.29212e-06 0)
(0.992034 -8.6129e-07 0)
(0.991969 1.00297e-06 0)
(0.992033 -9.37589e-07 0)
(0.991967 1.76602e-06 0)
(0.992028 -1.4517e-06 0)
(0.991962 2.36334e-06 0)
(0.992018 -1.48508e-06 0)
(0.99195 2.96038e-06 0)
(0.991998 -1.08756e-06 0)
(0.991926 5.88944e-06 0)
(1.00153 0.000334083 0)
(1.00098 0.00034946 0)
(1.00034 0.000383144 0)
(0.999757 0.000430807 0)
(0.999308 0.000486996 0)
(0.999018 0.00054806 0)
(0.998891 0.000610339 0)
(0.998907 0.000670059 0)
(0.999031 0.000723871 0)
(0.999221 0.000769053 0)
(0.999439 0.000803587 0)
(0.999651 0.000825831 0)
(0.999838 0.000835078 0)
(0.999987 0.000832086 0)
(1.0001 0.000820405 0)
(1.00017 0.000805552 0)
(1.0002 0.000792702 0)
(1.00022 0.00078599 0)
(1.00022 0.000787439 0)
(1.00022 0.000796707 0)
(1.00022 0.000812102 0)
(1.00022 0.000830093 0)
(1.00024 0.000846887 0)
(1.00026 0.000859654 0)
(1.00028 0.000866988 0)
(1.00031 0.000869901 0)
(1.00035 0.000870061 0)
(1.0004 0.000869001 0)
(1.00046 0.000868094 0)
(1.00052 0.000868162 0)
(1.00056 0.000869876 0)
(1.00057 0.000873241 0)
(1.00057 0.000877612 0)
(1.00057 0.00088201 0)
(1.0006 0.000885562 0)
(1.00064 0.000888528 0)
(1.00069 0.000891466 0)
(1.00072 0.000894595 0)
(1.00072 0.000897583 0)
(1.00072 0.000899311 0)
(1.00073 0.000899769 0)
(1.00077 0.000900128 0)
(1.00083 0.000901285 0)
(1.00088 0.000903797 0)
(1.0009 0.000907285 0)
(1.0009 0.000910759 0)
(1.00089 0.000913618 0)
(1.00092 0.000915852 0)
(1.00096 0.000918146 0)
(1.001 0.000921126 0)
(1.00102 0.000924695 0)
(1.00103 0.00092805 0)
(1.00104 0.000930001 0)
(1.00107 0.000930224 0)
(1.00112 0.000930395 0)
(1.00115 0.0009323 0)
(1.00117 0.000935267 0)
(1.00117 0.000937019 0)
(1.00118 0.000936746 0)
(1.00121 0.000935801 0)
(1.00126 0.000935747 0)
(1.00129 0.000937416 0)
(1.0013 0.000940254 0)
(1.0013 0.000943085 0)
(1.00133 0.000946104 0)
(1.00136 0.000950691 0)
(1.00139 0.00095726 0)
(1.00141 0.000964138 0)
(1.00142 0.000969018 0)
(1.00145 0.00097115 0)
(1.00149 0.000972443 0)
(1.00153 0.000974326 0)
(1.00154 0.000974308 0)
(1.00156 0.00096914 0)
(1.00159 0.000960597 0)
(1.00162 0.000953712 0)
(1.00164 0.000949525 0)
(1.00165 0.000945916 0)
(1.00167 0.000945006 0)
(1.00169 0.000951841 0)
(1.00171 0.000966299 0)
(1.00172 0.000984189 0)
(1.00174 0.00100393 0)
(1.00178 0.00102496 0)
(1.00182 0.00104268 0)
(1.00186 0.00105123 0)
(1.0019 0.00104802 0)
(1.00194 0.0010327 0)
(1.00197 0.00100665 0)
(1.002 0.00097495 0)
(1.00201 0.000945447 0)
(1.00202 0.000925193 0)
(1.00201 0.000919295 0)
(1.002 0.000931689 0)
(1.002 0.000962263 0)
(1.00201 0.00100268 0)
(1.00203 0.00103857 0)
(1.00206 0.00105855 0)
(1.00208 0.00106126 0)
(1.00211 0.00105297 0)
(1.00213 0.00104162 0)
(1.00215 0.00103389 0)
(1.00217 0.00103368 0)
(1.00219 0.00103973 0)
(1.00222 0.00104564 0)
(1.00225 0.00104615 0)
(1.00227 0.00104247 0)
(1.0023 0.00103927 0)
(1.00233 0.00103774 0)
(1.00235 0.00103521 0)
(1.00238 0.0010315 0)
(1.0024 0.00103091 0)
(1.00243 0.00103617 0)
(1.00246 0.00104289 0)
(1.00249 0.00104395 0)
(1.00251 0.00103938 0)
(1.00254 0.00103747 0)
(1.00256 0.00104401 0)
(1.00259 0.00105365 0)
(1.00262 0.00105491 0)
(1.00265 0.00104393 0)
(1.00268 0.0010311 0)
(1.0027 0.00103052 0)
(1.00273 0.00104338 0)
(1.00276 0.001055 0)
(1.00281 0.00104784 0)
(1.00285 0.00101748 0)
(1.00288 0.000978407 0)
(1.00291 0.000953662 0)
(1.00294 0.000955798 0)
(1.003 0.000973389 0)
(1.00307 0.000975387 0)
(1.00317 0.000929839 0)
(1.00328 0.00082186 0)
(1.00338 0.000659747 0)
(1.00345 0.000467778 0)
(1.00347 0.00027331 0)
(1.00346 9.70428e-05 0)
(1.00343 -5.03176e-05 0)
(1.00339 -0.000170078 0)
(1.00335 -0.00026438 0)
(1.00331 -0.000329951 0)
(1.00328 -0.00036901 0)
(1.00325 -0.000383268 0)
(1.00324 -0.000375502 0)
(1.00323 -0.000349468 0)
(1.00324 -0.000310329 0)
(1.00323 -0.000263297 0)
(1.00324 -0.000214201 0)
(1.00323 -0.000166868 0)
(1.00325 -0.000125325 0)
(1.00323 -9.01022e-05 0)
(1.00326 -6.31157e-05 0)
(1.00323 -4.20051e-05 0)
(1.00326 -2.79756e-05 0)
(1.00323 -1.71659e-05 0)
(1.00327 -1.13447e-05 0)
(1.00323 -6.27921e-06 0)
(1.00328 -4.47828e-06 0)
(1.00323 -2.19113e-06 0)
(1.00328 -1.76816e-06 0)
(1.00323 -9.80813e-07 0)
(1.00328 -4.9767e-07 0)
(1.00323 -8.93816e-07 0)
(1.00328 3.53169e-07 0)
(1.00323 -1.20643e-06 0)
(1.00328 1.00893e-06 0)
(1.00323 -1.45496e-06 0)
(1.00328 1.27865e-06 0)
(1.00323 -1.28779e-06 0)
(1.00327 9.54233e-07 0)
(1.00323 -5.79602e-07 0)
(1.00327 1.03888e-07 0)
(1.00323 4.5162e-07 0)
(1.00327 -9.26213e-07 0)
(1.00323 1.34674e-06 0)
(1.00328 -1.4468e-06 0)
(1.00323 1.38866e-06 0)
(1.00328 -9.69346e-07 0)
(1.00322 4.89855e-07 0)
(1.00328 1.6204e-07 0)
(1.00322 -6.71382e-07 0)
(1.00328 1.08648e-06 0)
(1.00322 -1.09752e-06 0)
(1.00327 8.63737e-07 0)
(1.00323 -3.02557e-07 0)
(1.00327 -2.62113e-07 0)
(1.00322 8.75774e-07 0)
(1.00328 -1.19976e-06 0)
(1.00322 1.22803e-06 0)
(1.00328 -8.61297e-07 0)
(1.00322 3.2478e-07 0)
(1.00328 2.9753e-07 0)
(1.00322 -7.36355e-07 0)
(1.00328 8.77623e-07 0)
(1.00322 -6.12814e-07 0)
(1.00327 1.07811e-07 0)
(1.00323 5.68163e-07 0)
(1.00327 -1.20537e-06 0)
(1.00322 1.61108e-06 0)
(1.00328 -1.59066e-06 0)
(1.00322 1.21147e-06 0)
(1.00328 -5.868e-07 0)
(1.00322 6.95587e-08 0)
(1.00328 1.70677e-07 0)
(1.00322 1.44854e-07 0)
(1.00327 -7.74845e-07 0)
(1.00322 1.54955e-06 0)
(1.00327 -1.75039e-06 0)
(1.00322 1.66666e-06 0)
(1.00328 -1.0099e-06 0)
(1.00322 1.0285e-06 0)
(1.00327 -8.1838e-07 0)
(1.00322 1.70055e-06 0)
(1.00327 -1.23442e-06 0)
(1.00321 2.08242e-06 0)
(1.00326 -9.13891e-07 0)
(1.0032 2.51239e-06 0)
(1.00324 -1.30396e-08 0)
(1.00318 5.028e-06 0)
(1.00154 0.000294213 0)
(1.00102 0.000294637 0)
(1.0004 0.000319151 0)
(0.999842 0.000366101 0)
(0.999408 0.000430448 0)
(0.999126 0.000506924 0)
(0.999 0.000589868 0)
(0.99901 0.000673049 0)
(0.999123 0.000750633 0)
(0.999298 0.000817767 0)
(0.999497 0.000871143 0)
(0.99969 0.000908976 0)
(0.999858 0.000931067 0)
(0.999992 0.000938482 0)
(1.00009 0.000934281 0)
(1.00016 0.000923477 0)
(1.0002 0.000911368 0)
(1.00022 0.000902681 0)
(1.00023 0.000900569 0)
(1.00024 0.000906083 0)
(1.00024 0.000918783 0)
(1.00025 0.000936364 0)
(1.00026 0.000955642 0)
(1.00028 0.000973341 0)
(1.0003 0.000986799 0)
(1.00032 0.000995463 0)
(1.00036 0.00100012 0)
(1.00041 0.00100201 0)
(1.00047 0.00100221 0)
(1.00053 0.00100149 0)
(1.00057 0.00100084 0)
(1.00058 0.0010012 0)
(1.00058 0.00100332 0)
(1.00059 0.00100712 0)
(1.00061 0.00101173 0)
(1.00065 0.00101676 0)
(1.0007 0.00102174 0)
(1.00073 0.00102626 0)
(1.00074 0.00102992 0)
(1.00073 0.00103171 0)
(1.00074 0.00103163 0)
(1.00078 0.00103098 0)
(1.00084 0.00103116 0)
(1.00089 0.00103289 0)
(1.00092 0.00103573 0)
(1.00091 0.00103858 0)
(1.00091 0.00104086 0)
(1.00094 0.00104322 0)
(1.00098 0.00104624 0)
(1.00102 0.00104919 0)
(1.00105 0.00105137 0)
(1.00106 0.00105284 0)
(1.00107 0.0010536 0)
(1.0011 0.00105404 0)
(1.00114 0.00105508 0)
(1.00118 0.00105692 0)
(1.0012 0.00105891 0)
(1.00121 0.00106053 0)
(1.00122 0.00106156 0)
(1.00125 0.0010618 0)
(1.0013 0.0010615 0)
(1.00133 0.00106165 0)
(1.00134 0.00106293 0)
(1.00136 0.00106519 0)
(1.00138 0.00106778 0)
(1.00142 0.00107059 0)
(1.00145 0.00107406 0)
(1.00147 0.00107799 0)
(1.00148 0.0010811 0)
(1.00152 0.00108235 0)
(1.00157 0.0010826 0)
(1.00161 0.00108354 0)
(1.00162 0.00108476 0)
(1.00164 0.00108341 0)
(1.00167 0.00107884 0)
(1.00172 0.00107461 0)
(1.00174 0.00107307 0)
(1.00175 0.00107241 0)
(1.00178 0.0010722 0)
(1.00181 0.00107563 0)
(1.00183 0.0010834 0)
(1.00185 0.0010924 0)
(1.00188 0.00110142 0)
(1.00192 0.00111151 0)
(1.00197 0.00112098 0)
(1.00201 0.00112627 0)
(1.00206 0.0011258 0)
(1.00211 0.00111987 0)
(1.00215 0.00110932 0)
(1.00218 0.00109621 0)
(1.00221 0.00108364 0)
(1.00222 0.00107464 0)
(1.00222 0.00107174 0)
(1.00222 0.0010763 0)
(1.00223 0.00108784 0)
(1.00225 0.00110372 0)
(1.00228 0.00111958 0)
(1.00232 0.00113135 0)
(1.00237 0.00113732 0)
(1.00241 0.00113865 0)
(1.00245 0.00113761 0)
(1.00248 0.00113599 0)
(1.00251 0.00113514 0)
(1.00254 0.00113538 0)
(1.00258 0.00113562 0)
(1.00263 0.0011345 0)
(1.00267 0.00113204 0)
(1.00271 0.00112961 0)
(1.00275 0.00112809 0)
(1.00279 0.00112702 0)
(1.00284 0.00112587 0)
(1.00288 0.001125 0)
(1.00292 0.0011254 0)
(1.00296 0.00112698 0)
(1.00301 0.0011282 0)
(1.00306 0.00112804 0)
(1.0031 0.00112723 0)
(1.00314 0.0011272 0)
(1.00319 0.00112796 0)
(1.00324 0.0011277 0)
(1.0033 0.00112489 0)
(1.00335 0.00112093 0)
(1.0034 0.00111803 0)
(1.00345 0.00111561 0)
(1.0035 0.00111051 0)
(1.00357 0.00109975 0)
(1.00364 0.00108375 0)
(1.0037 0.0010669 0)
(1.00376 0.00105241 0)
(1.00382 0.00103726 0)
(1.00389 0.00101518 0)
(1.00398 0.000980899 0)
(1.00409 0.000928809 0)
(1.00421 0.000851768 0)
(1.00431 0.000744074 0)
(1.00439 0.000607455 0)
(1.00442 0.000453207 0)
(1.00442 0.000298668 0)
(1.00437 0.000156923 0)
(1.00428 3.02872e-05 0)
(1.00419 -5.75855e-05 0)
(1.0041 -0.000114728 0)
(1.004 -0.000146657 0)
(1.00391 -0.00015812 0)
(1.00383 -0.000155346 0)
(1.00375 -0.000142831 0)
(1.00369 -0.000125555 0)
(1.00364 -0.000105796 0)
(1.00361 -8.68497e-05 0)
(1.00358 -6.88562e-05 0)
(1.00359 -5.39397e-05 0)
(1.00357 -4.07731e-05 0)
(1.00359 -3.09812e-05 0)
(1.00357 -2.25035e-05 0)