/*--------------------------------*- C++ -*----------------------------------*\
| =========                 |                                                 |
| \\      /  F ield         | OpenFOAM: The Open Source CFD Toolbox           |
|  \\    /   O peration     | Version:  v1906                                 |
|   \\  /    A nd           | Web:      www.OpenFOAM.com                      |
|    \\/     M anipulation  |                                                 |
\*---------------------------------------------------------------------------*/
FoamFile
{
    version     2.0;
    format      ascii;
    class       volScalarField;
    location    "0.2";
    object      p;
}
// * * * * * * * * * * * * * * * * * * * * * * * * * * * * * * * * * * * * * //

dimensions      [0 2 -2 0 0 0 0];


internalField   nonuniform List<scalar> 
800
(
1.96722e-08
0.00935888
0.0222464
0.0351346
0.0489346
0.0635716
0.0793421
0.0966027
0.115861
0.137831
0.163511
0.194309
0.232204
0.280121
0.342675
0.42428
0.527137
0.696695
1.07114
1.2255
-0.00633396
0.00136362
0.0133353
0.0254579
0.0384892
0.0522359
0.0669222
0.0828106
0.100276
0.119823
0.14211
0.167971
0.198384
0.234398
0.277176
0.325649
0.369522
0.404756
0.454916
0.276745
-0.018098
-0.012956
-0.00252602
0.00829776
0.0199718
0.0321626
0.0449527
0.0584405
0.0727634
0.0880585
0.104401
0.121683
0.139362
0.156005
0.168707
0.171152
0.149332
0.0866994
-0.0291631
-0.278348
-0.0316759
-0.028541
-0.0195949
-0.010108
0.000106812
0.0106045
0.0213107
0.032142
0.0429743
0.0535559
0.0633813
0.0714938
0.0761721
0.074495
0.0618998
0.0314868
-0.0265879
-0.121983
-0.263484
-0.47269
-0.0470043
-0.0452865
-0.0377378
-0.0296128
-0.0209527
-0.0122918
-0.00386502
0.00405569
0.0110845
0.0166083
0.0196387
0.0186237
0.0112255
-0.00586924
-0.0369746
-0.087233
-0.161881
-0.264253
-0.395708
-0.557146
-0.0646085
-0.0639014
-0.0577305
-0.0510398
-0.0440785
-0.0374521
-0.0315513
-0.0268294
-0.0239066
-0.0236841
-0.0274676
-0.037082
-0.0549347
-0.0839493
-0.127279
-0.187794
-0.267235
-0.365097
-0.478428
-0.601817
-0.0847391
-0.0847088
-0.0798984
-0.0747136
-0.069587
-0.0651753
-0.062004
-0.0606782
-0.0619908
-0.0670111
-0.0771525
-0.0941857
-0.120156
-0.157152
-0.20691
-0.270304
-0.346803
-0.434064
-0.528063
-0.623455
-0.10752
-0.107872
-0.104383
-0.100758
-0.0975693
-0.0955016
-0.0951771
-0.0973003
-0.102747
-0.112614
-0.128214
-0.151011
-0.182443
-0.22365
-0.275135
-0.336438
-0.405938
-0.480885
-0.557762
-0.632765
-0.133057
-0.133552
-0.131327
-0.129293
-0.128105
-0.128445
-0.130979
-0.136443
-0.145695
-0.159724
-0.179589
-0.206304
-0.240652
-0.282957
-0.332877
-0.389284
-0.45029
-0.513463
-0.576183
-0.636014
-0.161437
-0.161896
-0.16086
-0.160425
-0.161249
-0.163978
-0.169262
-0.177793
-0.19032
-0.20762
-0.230416
-0.259252
-0.294345
-0.335446
-0.381764
-0.43198
-0.484379
-0.537078
-0.588284
-0.63651
-0.192704
-0.193009
-0.193069
-0.194205
-0.196992
-0.202
-0.209803
-0.220977
-0.236095
-0.255671
-0.280078
-0.309455
-0.343611
-0.381977
-0.423616
-0.4673
-0.511654
-0.555329
-0.597166
-0.63628
-0.226848
-0.226927
-0.227974
-0.230616
-0.235254
-0.242341
-0.25232
-0.265604
-0.28255
-0.303402
-0.328233
-0.356884
-0.388926
-0.423674
-0.460233
-0.49759
-0.534729
-0.570738
-0.604892
-0.636679
-0.26379
-0.263609
-0.265522
-0.269567
-0.275888
-0.284779
-0.296516
-0.311319
-0.329325
-0.350545
-0.374825
-0.401827
-0.431027
-0.461758
-0.493262
-0.524771
-0.555576
-0.585089
-0.612875
-0.638652
-0.303364
-0.302915
-0.305576
-0.310895
-0.318693
-0.329071
-0.342117
-0.357854
-0.376224
-0.397057
-0.42006
-0.444814
-0.470803
-0.497449
-0.524168
-0.550411
-0.575713
-0.599713
-0.622167
-0.642932
-0.345296
-0.344593
-0.347904
-0.354372
-0.363443
-0.374996
-0.388927
-0.405081
-0.423244
-0.44313
-0.464376
-0.486562
-0.509232
-0.531932
-0.554239
-0.575791
-0.596303
-0.615576
-0.633492
-0.649997
-0.38915
-0.388219
-0.392142
-0.399695
-0.4099
-0.422393
-0.436886
-0.453073
-0.47063
-0.489208
-0.508444
-0.527964
-0.547409
-0.56645
-0.584811
-0.602269
-0.618669
-0.633916
-0.647969
-0.660826
-0.434261
-0.433122
-0.437695
-0.446374
-0.457706
-0.471065
-0.485997
-0.502069
-0.518875
-0.536036
-0.553206
-0.570078
-0.586393
-0.601948
-0.616597
-0.630251
-0.642867
-0.654442
-0.665004
-0.674601
-0.479809
-0.478681
-0.484147
-0.494135
-0.506677
-0.520904
-0.536248
-0.552212
-0.568372
-0.58437
-0.599912
-0.614758
-0.628725
-0.641686
-0.653565
-0.664333
-0.674001
-0.682612
-0.69023
-0.696925
-0.524823
-0.525162
-0.532864
-0.545132
-0.559516
-0.574927
-0.590697
-0.606281
-0.621253
-0.635312
-0.648266
-0.660014
-0.670528
-0.679841
-0.688025
-0.695176
-0.701402
-0.70681
-0.711506
-0.715607
-0.563161
-0.567162
-0.579208
-0.595774
-0.614248
-0.63347
-0.652722
-0.671381
-0.688928
-0.704971
-0.719245
-0.731606
-0.742014
-0.750515
-0.757224
-0.762301
-0.765935
-0.768329
-0.769686
-0.770131
-1.25622
-2.3153
-2.27468
-2.04863
-1.85454
-1.70218
-1.58358
-1.48989
-1.41373
-1.35018
-1.29606
-1.24923
-1.20822
-1.17199
-1.13984
-1.11137
-1.08658
-1.06563
-1.05053
-1.04004
-0.870756
-1.54422
-1.71924
-1.71828
-1.66232
-1.58691
-1.51076
-1.44132
-1.37983
-1.32569
-1.27793
-1.23559
-1.19786
-1.16413
-1.13397
-1.10714
-1.08375
-1.064
-1.04984
-1.03979
-0.773408
-1.17254
-1.38281
-1.47111
-1.4903
-1.47008
-1.43133
-1.38628
-1.34075
-1.29729
-1.25687
-1.21975
-1.18584
-1.15501
-1.12712
-1.10213
-1.0803
-1.06184
-1.04873
-1.03927
-0.753285
-1.01377
-1.19451
-1.2995
-1.34969
-1.36235
-1.35164
-1.32798
-1.29799
-1.26566
-1.23321
-1.20188
-1.17225
-1.14466
-1.11929
-1.09633
-1.07616
-1.05908
-1.04708
-1.03839
-0.740227
-0.918231
-1.06311
-1.16547
-1.22947
-1.26243
-1.27239
-1.26673
-1.25125
-1.23011
-1.20614
-1.18118
-1.15639
-1.13249
-1.11001
-1.08935
-1.07104
-1.05549
-1.04475
-1.03706
-0.72912
-0.85525
-0.969149
-1.06118
-1.12854
-1.17245
-1.19641
-1.20483
-1.20194
-1.19135
-1.17588
-1.15761
-1.13805
-1.11826
-1.09902
-1.08095
-1.06473
-1.05088
-1.04156
-1.0351
-0.717438
-0.811381
-0.90147
-0.98088
-1.0454
-1.09352
-1.12586
-1.14438
-1.15168
-1.15041
-1.14297
-1.1314
-1.11728
-1.10187
-1.08615
-1.07092
-1.05701
-1.04504
-1.0373
-1.03224
-0.705164
-0.777953
-0.850254
-0.917731
-0.97673
-1.02493
-1.06146
-1.08664
-1.10167
-1.10818
-1.10798
-1.10278
-1.09408
-1.08319
-1.0712
-1.05903
-1.0476
-1.03767
-1.03167
-1.02811
-0.693252
-0.751111
-0.809905
-0.866967
-0.919575
-0.965493
-1.00326
-1.03229
-1.05275
-1.06541
-1.0714
-1.072
-1.0685
-1.06211
-1.05393
-1.04495
-1.03615
-1.02839
-1.02427
-1.02222
-0.682496
-0.729229
-0.777486
-0.825638
-0.871789
-0.914108
-0.951088
-0.981717
-1.00555
-1.0227
-1.03367
-1.0393
-1.04055
-1.03846
-1.03405
-1.0283
-1.0222
-1.01669
-1.01454
-1.01386
-0.673554
-0.711623
-0.751405
-0.791912
-0.831873
-0.869913
-0.90472
-0.935203
-0.960616
-0.980619
-0.995267
-1.00495
-1.0103
-1.01212
-1.01126
-1.00864
-1.00521
-1.00195
-1.00176
-1.00215
-0.666982
-0.698063
-0.730837
-0.76471
-0.798858
-0.832304
-0.86401
-0.892991
-0.918423
-0.939741
-0.95668
-0.969284
-0.977868
-0.982958
-0.985229
-0.985468
-0.984524
-0.983399
-0.985016
-0.985992
-0.663234
-0.688528
-0.715374
-0.743425
-0.772157
-0.800906
-0.828905
-0.855351
-0.879485
-0.900675
-0.918491
-0.932739
-0.943474
-0.950975
-0.955711
-0.958301
-0.959461
-0.960156
-0.963241
-0.964094
-0.662725
-0.683124
-0.704864
-0.727744
-0.751441
-0.775516
-0.79943
-0.822575
-0.844321
-0.864081
-0.881378
-0.895897
-0.907515
-0.916317
-0.922578
-0.926741
-0.929359
-0.931325
-0.935277
-0.935083
-0.665709
-0.681905
-0.699193
-0.717454
-0.736485
-0.755999
-0.775628
-0.794932
-0.813427
-0.830627
-0.846091
-0.859478
-0.87058
-0.879356
-0.885931
-0.890588
-0.893717
-0.896107
-0.900027
-0.897655
-0.672996
-0.685486
-0.69878
-0.712806
-0.727434
-0.742474
-0.757676
-0.77273
-0.787281
-0.800954
-0.813389
-0.824278
-0.833406
-0.840677
-0.846132
-0.849934
-0.852334
-0.854012
-0.856718
-0.850893
-0.683658
-0.692924
-0.702728
-0.712994
-0.723614
-0.734439
-0.745279
-0.755905
-0.766057
-0.775462
-0.783855
-0.791009
-0.796761
-0.801036
-0.803855
-0.805321
-0.805586
-0.805227
-0.805354
-0.794767
-0.703
-0.708984
-0.715127
-0.721383
-0.727667
-0.733873
-0.739866
-0.745487
-0.750557
-0.754884
-0.758286
-0.760607
-0.761742
-0.76165
-0.760364
-0.757954
-0.754514
-0.750539
-0.746435
-0.729617
-0.719393
-0.723147
-0.726866
-0.730414
-0.733659
-0.736449
-0.738611
-0.739954
-0.740292
-0.739448
-0.737284
-0.733712
-0.72872
-0.722381
-0.71484
-0.706273
-0.696857
-0.687098
-0.676626
-0.65209
-0.769661
-0.768317
-0.766211
-0.763315
-0.759501
-0.75464
-0.748616
-0.74133
-0.732703
-0.722696
-0.711324
-0.698677
-0.684936
-0.670377
-0.655352
-0.640223
-0.62532
-0.610856
-0.594574
-0.56374
)
;

boundaryField
{
    zeroGradient_plane
    {
        type            zeroGradient;
    }
    inlet
    {
        type            zeroGradient;
    }
    plate
    {
        type            zeroGradient;
    }
    frontAndBack
    {
        type            empty;
    }
}


// ************************************************************************* //
