/*--------------------------------*- C++ -*----------------------------------*\
| =========                 |                                                 |
| \\      /  F ield         | OpenFOAM: The Open Source CFD Toolbox           |
|  \\    /   O peration     | Version:  v1906                                 |
|   \\  /    A nd           | Web:      www.OpenFOAM.com                      |
|    \\/     M anipulation  |                                                 |
\*---------------------------------------------------------------------------*/
FoamFile
{
    version     2.0;
    format      ascii;
    class       surfaceScalarField;
    location    "0.2";
    object      phi;
}
// * * * * * * * * * * * * * * * * * * * * * * * * * * * * * * * * * * * * * //

dimensions      [0 3 -1 0 0 0 0];
oriented        oriented;


internalField   nonuniform List<scalar> 
1540
(
1.9782e-05
2.4847e-06
1.96315e-05
7.68431e-06
1.94777e-05
1.21374e-05
1.9326e-05
1.58482e-05
1.91779e-05
1.89244e-05
1.90331e-05
2.14839e-05
1.88908e-05
2.36297e-05
1.87498e-05
2.54409e-05
1.86084e-05
2.69691e-05
1.84645e-05
2.82374e-05
1.83152e-05
2.92405e-05
1.81563e-05
2.99473e-05
1.79816e-05
3.03041e-05
1.77813e-05
3.02389e-05
1.75399e-05
2.96639e-05
1.72342e-05
2.84748e-05
1.68198e-05
2.65591e-05
1.61636e-05
2.38073e-05
1.4969e-05
1.99959e-05
1.44281e-05
1.3122e-05
2.1535e-05
2.60954e-06
2.13728e-05
7.84644e-06
2.12064e-05
1.23038e-05
2.10432e-05
1.60114e-05
2.08845e-05
1.90831e-05
2.07302e-05
2.16382e-05
2.05797e-05
2.37802e-05
2.04322e-05
2.55883e-05
2.02869e-05
2.71145e-05
2.01426e-05
2.83817e-05
1.99982e-05
2.93849e-05
1.98524e-05
3.00931e-05
1.97037e-05
3.04527e-05
1.95509e-05
3.03917e-05
1.93923e-05
2.98225e-05
1.92245e-05
2.86426e-05
1.90458e-05
2.67378e-05
1.8856e-05
2.39972e-05
1.85834e-05
2.02684e-05
1.52747e-05
1.77367e-05
2.3447e-05
2.73705e-06
2.32749e-05
8.01847e-06
2.30977e-05
1.24811e-05
2.29248e-05
1.61842e-05
2.27582e-05
1.92498e-05
2.25984e-05
2.1798e-05
2.24455e-05
2.3933e-05
2.23001e-05
2.57338e-05
2.2163e-05
2.72516e-05
2.2036e-05
2.85086e-05
2.19224e-05
2.94985e-05
2.18272e-05
3.01883e-05
2.17585e-05
3.05215e-05
2.17281e-05
3.04221e-05
2.17517e-05
2.97989e-05
2.18442e-05
2.85501e-05
2.20069e-05
2.65751e-05
2.21991e-05
2.3805e-05
2.22509e-05
2.02166e-05
1.58847e-05
2.16409e-05
2.55321e-05
2.86339e-06
2.53534e-05
8.19721e-06
2.51681e-05
1.26664e-05
2.49888e-05
1.63635e-05
2.48188e-05
1.94198e-05
2.46595e-05
2.19573e-05
2.45127e-05
2.40798e-05
2.4381e-05
2.58655e-05
2.42684e-05
2.73642e-05
2.41813e-05
2.85957e-05
2.41291e-05
2.95507e-05
2.41251e-05
3.01923e-05
2.41867e-05
3.04598e-05
2.4335e-05
3.02738e-05
2.45893e-05
2.95446e-05
2.49546e-05
2.81848e-05
2.53978e-05
2.61319e-05
2.58185e-05
2.33843e-05
2.60045e-05
2.00306e-05
1.62891e-05
2.56002e-05
2.78052e-05
2.98477e-06
2.76244e-05
8.37805e-06
2.74358e-05
1.2855e-05
2.72553e-05
1.6544e-05
2.70884e-05
1.95867e-05
2.69383e-05
2.21074e-05
2.6809e-05
2.42091e-05
2.67061e-05
2.59684e-05
2.66381e-05
2.74322e-05
2.66169e-05
2.86169e-05
2.66584e-05
2.95091e-05
2.6783e-05
3.00678e-05
2.70129e-05
3.02298e-05
2.73685e-05
2.99182e-05
2.78572e-05
2.90559e-05
2.84573e-05
2.75847e-05
2.90978e-05
2.54913e-05
2.96463e-05
2.28358e-05
2.99105e-05
1.97664e-05
1.65213e-05
2.96782e-05
3.02827e-05
3.09737e-06
3.01058e-05
8.55492e-06
2.99206e-05
1.30402e-05
2.97466e-05
1.67179e-05
2.95919e-05
1.97414e-05
2.94624e-05
2.22369e-05
2.9365e-05
2.43066e-05
2.93093e-05
2.60241e-05
2.93086e-05
2.74329e-05
2.93802e-05
2.85452e-05
2.95455e-05
2.93439e-05
2.98273e-05
2.97859e-05
3.02463e-05
2.98108e-05
3.0812e-05
2.93526e-05
3.15107e-05
2.83572e-05
3.22924e-05
2.68031e-05
3.30615e-05
2.47223e-05
3.36831e-05
2.22141e-05
3.40079e-05
1.94416e-05
1.66101e-05
3.39192e-05
3.29821e-05
3.19743e-06
3.28167e-05
8.72028e-06
3.2644e-05
1.3213e-05
3.24867e-05
1.68752e-05
3.23563e-05
1.98717e-05
3.22617e-05
2.23315e-05
3.22134e-05
2.43548e-05
3.22254e-05
2.60122e-05
3.23153e-05
2.73429e-05
3.25048e-05
2.83558e-05
3.28168e-05
2.90319e-05
3.32721e-05
2.93306e-05
3.38823e-05
2.92007e-05
3.46401e-05
2.85948e-05
3.55098e-05
2.74875e-05
3.64207e-05
2.58922e-05
3.72702e-05
2.38727e-05
3.79407e-05
2.15436e-05
3.83273e-05
1.90551e-05
1.65676e-05
3.83697e-05
3.59227e-05
3.28134e-06
3.57778e-05
8.8652e-06
3.56289e-05
1.33618e-05
3.55015e-05
1.70027e-05
3.54102e-05
1.9963e-05
3.53675e-05
2.23742e-05
3.53876e-05
2.43347e-05
3.54882e-05
2.59115e-05
3.56905e-05
2.71407e-05
3.60171e-05
2.80292e-05
3.64892e-05
2.85598e-05
3.71199e-05
2.86999e-05
3.79074e-05
2.84131e-05
3.88269e-05
2.76753e-05
3.98253e-05
2.64891e-05
4.0823e-05
2.48944e-05
4.17244e-05
2.29714e-05
4.24361e-05
2.08319e-05
4.28888e-05
1.86024e-05
1.64031e-05
4.30533e-05
3.91252e-05
3.34565e-06
3.90109e-05
8.97951e-06
3.88997e-05
1.34731e-05
3.88179e-05
1.70845e-05
3.87832e-05
1.99977e-05
3.88112e-05
2.23462e-05
3.89196e-05
2.42264e-05
3.91286e-05
2.57025e-05
3.94605e-05
2.68088e-05
3.99359e-05
2.75537e-05
4.057e-05
2.79258e-05
4.13652e-05
2.79047e-05
4.23053e-05
2.7473e-05
4.3351e-05
2.66296e-05
4.444e-05
2.54e-05
4.54941e-05
2.38404e-05
4.64314e-05
2.20341e-05
4.71823e-05
2.00809e-05
4.77025e-05
1.80822e-05
1.61265e-05
4.79792e-05
4.26124e-05
3.38704e-06
4.25398e-05
9.0521e-06
4.24817e-05
1.35312e-05
4.24635e-05
1.71026e-05
4.25047e-05
1.99566e-05
4.26233e-05
2.22276e-05
4.28389e-05
2.40107e-05
4.31727e-05
2.53687e-05
4.3645e-05
2.63365e-05
4.42718e-05
2.69269e-05
4.50592e-05
2.71384e-05
4.59981e-05
2.69657e-05
4.70603e-05
2.64109e-05
4.81974e-05
2.54925e-05
4.93457e-05
2.42518e-05
5.04345e-05
2.27516e-05
5.13982e-05
2.10704e-05
5.21865e-05
1.92926e-05
5.27717e-05
1.74969e-05
1.57489e-05
5.31493e-05
4.6409e-05
3.40233e-06
4.63898e-05
9.0713e-06
4.64015e-05
1.35195e-05
4.64664e-05
1.70378e-05
4.66035e-05
1.98194e-05
4.68318e-05
2.19993e-05
4.71709e-05
2.36716e-05
4.76404e-05
2.48992e-05
4.82566e-05
2.57204e-05
4.90281e-05
2.61553e-05
4.99517e-05
2.62149e-05
5.10078e-05
2.59096e-05
5.216e-05
2.52587e-05
5.3357e-05
2.42954e-05
5.45392e-05
2.30696e-05
5.56469e-05
2.16439e-05
5.66293e-05
2.00881e-05
5.7451e-05
1.84709e-05
5.80948e-05
1.68531e-05
1.52834e-05
5.85603e-05
5.05421e-05
3.38841e-06
5.05881e-05
9.02532e-06
5.06868e-05
1.34208e-05
5.08542e-05
1.68704e-05
5.11066e-05
1.9567e-05
5.14614e-05
2.16445e-05
5.1936e-05
2.3197e-05
5.2546e-05
2.42892e-05
5.33017e-05
2.49647e-05
5.42038e-05
2.52533e-05
5.52401e-05
2.51785e-05
5.63841e-05
2.47657e-05
5.75956e-05
2.40472e-05
5.88252e-05
2.30658e-05
6.00207e-05
2.18741e-05
6.11339e-05
2.05307e-05
6.21267e-05
1.90953e-05
6.29745e-05
1.7623e-05
6.36669e-05
1.61608e-05
1.47449e-05
6.42054e-05
5.5041e-05
3.3422e-06
5.51638e-05
8.9025e-06
5.53664e-05
1.32182e-05
5.56549e-05
1.65818e-05
5.60399e-05
1.91821e-05
5.65341e-05
2.11504e-05
5.71505e-05
2.25806e-05
5.7899e-05
2.35407e-05
5.87828e-05
2.40808e-05
5.97954e-05
2.42407e-05
6.0918e-05
2.40559e-05
6.21204e-05
2.35633e-05
6.33629e-05
2.28047e-05
6.46012e-05
2.18274e-05
6.5792e-05
2.06833e-05
6.68979e-05
1.94249e-05
6.78909e-05
1.81023e-05
6.87543e-05
1.67596e-05
6.94818e-05
1.54332e-05
1.41506e-05
7.00761e-05
5.99381e-05
3.26035e-06
6.01492e-05
8.69137e-06
6.04716e-05
1.28958e-05
6.08979e-05
1.61555e-05
6.1429e-05
1.8651e-05
6.20706e-05
2.05087e-05
6.28291e-05
2.18221e-05
6.37076e-05
2.26622e-05
6.47026e-05
2.30858e-05
6.58017e-05
2.31416e-05
6.69827e-05
2.28749e-05
6.8215e-05
2.2331e-05
6.94625e-05
2.15571e-05
7.06881e-05
2.06019e-05
7.18572e-05
1.95142e-05
7.29419e-05
1.83402e-05
7.39223e-05
1.71218e-05
7.47874e-05
1.58946e-05
7.55337e-05
1.46869e-05
1.35201e-05
7.61642e-05
6.5269e-05
3.13873e-06
6.55805e-05
8.3799e-06
6.6038e-05
1.24382e-05
6.66161e-05
1.55774e-05
6.7303e-05
1.79641e-05
6.80947e-05
1.9717e-05
6.89896e-05
2.09272e-05
6.99841e-05
2.16677e-05
7.10691e-05
2.20008e-05
7.22285e-05
2.19821e-05
7.34397e-05
2.16637e-05
7.46746e-05
2.10961e-05
7.59028e-05
2.0329e-05
7.70946e-05
1.94101e-05
7.82244e-05
1.83844e-05
7.9272e-05
1.72926e-05
8.0224e-05
1.61698e-05
8.10735e-05
1.50451e-05
8.18192e-05
1.39412e-05
1.28752e-05
8.24642e-05
7.10741e-05
2.971e-06
7.15005e-05
7.95351e-06
7.2109e-05
1.18297e-05
7.28512e-05
1.48352e-05
7.36997e-05
1.71156e-05
7.46392e-05
1.87775e-05
7.56599e-05
1.99065e-05
7.67519e-05
2.05757e-05
7.79025e-05
2.08502e-05
7.90948e-05
2.07898e-05
8.03081e-05
2.04505e-05
8.15189e-05
1.98854e-05
8.27036e-05
1.91443e-05
8.38405e-05
1.82732e-05
8.49115e-05
1.73134e-05
8.59033e-05
1.63008e-05
8.68074e-05
1.52656e-05
8.76204e-05
1.42321e-05
8.83426e-05
1.32191e-05
1.22405e-05
8.89772e-05
7.73995e-05
2.74584e-06
7.79616e-05
7.39146e-06
7.87397e-05
1.10515e-05
7.9658e-05
1.39169e-05
8.06713e-05
1.61023e-05
8.17531e-05
1.76958e-05
8.28854e-05
1.87741e-05
8.4054e-05
1.94072e-05
8.52444e-05
1.96598e-05
8.64411e-05
1.95931e-05
8.76271e-05
1.92644e-05
8.87856e-05
1.87269e-05
8.99002e-05
1.80296e-05
9.09572e-05
1.72162e-05
9.19457e-05
1.63249e-05
9.28584e-05
1.53881e-05
9.36914e-05
1.44326e-05
9.44439e-05
1.34796e-05
9.51177e-05
1.25453e-05
1.16419e-05
9.57163e-05
8.43041e-05
2.43819e-06
8.50328e-05
6.66277e-06
8.60025e-05
1.00819e-05
8.71071e-05
1.28123e-05
8.82855e-05
1.49238e-05
8.9501e-05
1.64803e-05
9.07297e-05
1.75454e-05
9.19547e-05
1.81822e-05
9.31618e-05
1.84527e-05
9.43385e-05
1.84164e-05
9.54732e-05
1.81297e-05
9.65554e-05
1.76448e-05
9.75762e-05
1.70088e-05
9.85289e-05
1.62635e-05
9.94091e-05
1.54447e-05
0.000100215
1.45824e-05
0.000100946
1.37011e-05
0.000101606
1.28202e-05
0.000102196
1.19546e-05
1.11153e-05
0.000102723
9.18697e-05
1.99011e-06
9.28057e-05
5.72671e-06
9.39869e-05
8.90071e-06
9.52833e-05
1.15158e-05
9.66219e-05
1.35853e-05
9.79582e-05
1.5144e-05
9.92639e-05
1.62396e-05
0.000100521
1.69255e-05
0.000101716
1.72572e-05
0.000102842
1.729e-05
0.000103895
1.70771e-05
0.000104871
1.66684e-05
0.000105771
1.61091e-05
0.000106595
1.54395e-05
0.000107346
1.46942e-05
0.000108026
1.39022e-05
0.000108639
1.30873e-05
0.000109191
1.22685e-05
0.000109686
1.14602e-05
1.06735e-05
0.000110128
0.000100142
0.000101314
0.000102711
0.000104205
0.000105717
0.000107196
0.000108606
0.000109924
0.000111138
0.000112241
0.000113231
0.000114112
0.00011489
0.000115572
0.000116169
0.000116688
0.00011714
0.000117532
0.000117874
0.000118171
6.61396e-06
6.50802e-06
3.66894e-06
2.94502e-06
2.33913e-06
1.3298e-06
1.68875e-06
6.50377e-07
1.32931e-06
3.59445e-07
1.10262e-06
2.26691e-07
9.43583e-07
1.59036e-07
8.24006e-07
1.19577e-07
7.30164e-07
9.38414e-08
6.54421e-07
7.57428e-08
5.92104e-07
6.23172e-08
5.40216e-07
5.18882e-08
4.96823e-07
4.3393e-08
4.60736e-07
3.60874e-08
4.31341e-07
2.9395e-08
4.08514e-07
2.28269e-08
3.92481e-07
1.60323e-08
3.83665e-07
8.81591e-09
3.80837e-07
2.82881e-09
-1.08849e-09
1.41073e-05
1.01375e-05
1.05423e-05
6.50995e-06
7.88258e-06
3.98956e-06
6.06808e-06
2.46487e-06
4.84702e-06
1.58051e-06
4.00404e-06
1.06967e-06
3.39732e-06
7.65753e-07
2.94202e-06
5.74878e-07
2.58809e-06
4.47766e-07
2.3053e-06
3.5854e-07
2.07469e-06
2.92921e-07
1.88408e-06
2.42499e-07
1.72554e-06
2.0194e-07
1.59405e-06
1.67577e-07
1.48679e-06
1.3665e-07
1.40269e-06
1.0693e-07
1.34198e-06
7.67421e-08
1.30513e-06
4.56664e-08
1.28933e-06
1.86254e-08
2.76391e-09
1.95234e-05
1.2255e-05
1.65839e-05
9.44936e-06
1.36722e-05
6.90132e-06
1.1207e-05
4.93001e-06
9.26641e-06
3.52114e-06
7.78012e-06
2.55596e-06
6.64246e-06
1.90342e-06
5.75976e-06
1.45758e-06
5.06197e-06
1.14556e-06
4.50002e-06
9.20489e-07
4.0403e-06
7.52639e-07
3.65991e-06
6.22888e-07
3.34338e-06
5.18467e-07
3.08061e-06
4.30352e-07
2.86557e-06
3.51689e-07
2.69552e-06
2.76982e-07
2.57022e-06
2.02039e-07
2.4898e-06
1.26086e-07
2.45005e-06
5.83752e-08
1.85912e-08
2.42419e-05
1.36133e-05
2.2004e-05
1.16872e-05
1.93523e-05
9.55298e-06
1.67199e-05
7.56251e-06
1.43555e-05
5.88548e-06
1.23496e-05
4.56188e-06
1.0696e-05
3.557e-06
9.34663e-06
2.80697e-06
8.24446e-06
2.24772e-06
7.33851e-06
1.82645e-06
6.58795e-06
1.5032e-06
5.962e-06
1.24884e-06
5.43837e-06
1.04209e-06
5.00173e-06
8.66996e-07
4.64245e-06
7.10972e-07
4.3557e-06
5.63732e-07
4.14042e-06
4.17317e-07
3.99635e-06
2.70151e-07
3.91787e-06
1.36857e-07
5.52307e-08
2.87759e-05
1.45156e-05
2.71252e-05
1.33379e-05
2.49094e-05
1.17688e-05
2.24212e-05
1.00507e-05
1.99241e-05
8.38261e-06
1.75956e-05
6.89036e-06
1.55243e-05
5.62835e-06
1.37325e-05
4.59867e-06
1.22054e-05
3.7749e-06
1.09116e-05
3.12022e-06
9.81706e-06
2.59773e-06
8.89092e-06
2.17498e-06
8.10809e-06
1.82492e-06
7.44989e-06
1.52519e-06
6.90391e-06
1.25696e-06
6.46352e-06
1.00412e-06
6.12694e-06
7.53896e-07
5.89384e-06
5.03254e-07
5.75757e-06
2.73122e-07
1.24568e-07
3.3337e-05
1.50978e-05
3.21557e-05
1.45192e-05
3.04036e-05
1.35209e-05
2.82283e-05
1.2226e-05
2.58275e-05
1.07834e-05
2.33884e-05
9.32952e-06
2.10517e-05
7.965e-06
1.89029e-05
6.74751e-06
1.698e-05
5.69781e-06
1.52889e-05
4.8113e-06
1.38176e-05
4.06906e-06
1.25464e-05
3.44612e-06
1.14551e-05
2.91626e-06
1.05261e-05
2.45419e-06
9.74685e-06
2.03619e-06
9.11048e-06
1.64049e-06
8.61543e-06
1.24895e-06
8.2622e-06
8.5648e-07
8.04424e-06
4.91086e-07
2.4227e-07
3.80354e-05
1.54322e-05
3.72293e-05
1.53253e-05
3.59087e-05
1.48415e-05
3.41171e-05
1.40177e-05
3.19669e-05
1.29336e-05
2.96048e-05
1.16916e-05
2.71764e-05
1.03934e-05
2.48012e-05
9.12278e-06
2.25621e-05
7.93687e-06
2.05074e-05
6.86596e-06
1.86582e-05
5.91834e-06
1.70175e-05
5.08675e-06
1.55794e-05
4.35437e-06
1.43346e-05
3.69897e-06
1.32753e-05
3.09556e-06
1.23974e-05
2.5184e-06
1.17018e-05
1.94449e-06
1.11919e-05
1.36642e-06
1.08631e-05
8.19878e-07
4.28551e-07
4.29232e-05
1.55623e-05
4.24246e-05
1.58239e-05
4.14876e-05
1.57785e-05
4.00936e-05
1.54116e-05
3.82821e-05
1.47451e-05
3.6141e-05
1.38327e-05
3.37861e-05
1.27483e-05
3.13379e-05
1.1571e-05
2.89028e-05
1.0372e-05
2.65629e-05
9.20588e-06
2.43742e-05
8.10699e-06
2.23702e-05
7.09072e-06
2.0568e-05
6.15661e-06
1.89748e-05
5.29216e-06
1.75941e-05
4.47625e-06
1.64299e-05
3.68258e-06
1.54895e-05
2.88496e-06
1.47819e-05
2.07402e-06
1.4308e-05
1.29373e-06
7.08833e-07
4.8023e-05
1.55184e-05
4.77823e-05
1.60646e-05
4.71816e-05
1.63792e-05
4.61703e-05
1.64229e-05
4.47367e-05
1.61787e-05
4.29128e-05
1.56565e-05
4.07693e-05
1.48918e-05
3.84016e-05
1.39387e-05
3.5914e-05
1.28596e-05
3.3405e-05
1.17149e-05
3.09573e-05
1.05547e-05
2.86343e-05
9.41369e-06
2.64813e-05
8.30969e-06
2.4529e-05
7.24441e-06
2.27996e-05
6.20566e-06
2.13115e-05
5.17069e-06
2.00835e-05
4.11293e-06
1.91354e-05
3.02212e-06
1.84781e-05
1.95106e-06
1.11408e-06
5.33427e-05
1.5325e-05
5.33209e-05
1.60864e-05
5.30125e-05
1.66876e-05
5.23545e-05
1.70809e-05
5.13047e-05
1.72285e-05
4.98519e-05
1.71093e-05
4.80206e-05
1.67232e-05
4.58681e-05
1.60911e-05
4.34761e-05
1.52515e-05
4.09382e-05
1.42528e-05
3.83482e-05
1.31448e-05
3.5791e-05
1.19709e-05
3.33383e-05
1.07624e-05
3.10477e-05
9.535e-06
2.89656e-05
8.28781e-06
2.71312e-05
7.00504e-06
2.55815e-05
5.66265e-06
2.43526e-05
4.25104e-06
2.34713e-05
2.8323e-06
1.6805e-06
5.88809e-05
1.50045e-05
5.90442e-05
1.5923e-05
5.89874e-05
1.67444e-05
5.86461e-05
1.74222e-05
5.79635e-05
1.79111e-05
5.69004e-05
1.81725e-05
5.54435e-05
1.81801e-05
5.36101e-05
1.79245e-05
5.14474e-05
1.74142e-05
4.90269e-05
1.66733e-05
4.64351e-05
1.57366e-05
4.37639e-05
1.4642e-05
4.11027e-05
1.34236e-05
3.85328e-05
1.21049e-05
3.61265e-05
1.06941e-05
3.39485e-05
9.18303e-06
3.20594e-05
7.55167e-06
3.05183e-05
5.79222e-06
2.93745e-05
3.9761e-06
2.44808e-06
6.4631e-05
1.45789e-05
6.49479e-05
1.56061e-05
6.51031e-05
1.65892e-05
6.50373e-05
1.7488e-05
6.46902e-05
1.82583e-05
6.40078e-05
1.88549e-05
6.29509e-05
1.92369e-05
6.1503e-05
1.93725e-05
5.96747e-05
1.92425e-05
5.75051e-05
1.88429e-05
5.50583e-05
1.81834e-05
5.24165e-05
1.72838e-05
4.96724e-05
1.61677e-05
4.69218e-05
1.48555e-05
4.42587e-05
1.33572e-05
4.17734e-05
1.16683e-05
3.95537e-05
9.77144e-06
3.7686e-05
7.65992e-06
3.62486e-05
5.41341e-06
3.45761e-06
7.05838e-05
1.40711e-05
7.10229e-05
1.5167e-05
7.13506e-05
1.62615e-05
7.15157e-05
1.73229e-05
7.14613e-05
1.83127e-05
7.1129e-05
1.91872e-05
7.04657e-05
1.99002e-05
6.94309e-05
2.04073e-05
6.8004e-05
2.06694e-05
6.61899e-05
2.0657e-05
6.40211e-05
2.03522e-05
6.15564e-05
1.97486e-05
5.88763e-05
1.88478e-05
5.60769e-05
1.76548e-05
5.32637e-05
1.61704e-05
5.05468e-05
1.43852e-05
4.80393e-05
1.22789e-05
4.5857e-05
9.84225e-06
4.41105e-05
7.15995e-06
4.74568e-06
7.67297e-05
1.35055e-05
7.72589e-05
1.46378e-05
7.77185e-05
1.58019e-05
7.80668e-05
1.69746e-05
7.82541e-05
1.81254e-05
7.82249e-05
1.92164e-05
7.79217e-05
2.02035e-05
7.7291e-05
2.1038e-05
7.62903e-05
2.167e-05
7.48953e-05
2.2052e-05
7.31058e-05
2.21418e-05
7.09492e-05
2.19051e-05
6.84813e-05
2.13157e-05
6.57833e-05
2.03528e-05
6.29578e-05
1.8996e-05
6.01231e-05
1.72199e-05
5.74099e-05
1.49921e-05
5.49587e-05
1.22934e-05
5.2911e-05
9.20764e-06
6.33771e-06
8.30614e-05
1.29083e-05
8.36472e-05
1.4052e-05
8.41968e-05
1.52523e-05
8.46778e-05
1.64936e-05
8.50495e-05
1.77537e-05
8.52633e-05
1.90026e-05
8.52648e-05
2.0202e-05
8.4997e-05
2.13058e-05
8.44058e-05
2.22612e-05
8.34469e-05
2.30109e-05
8.20926e-05
2.34961e-05
8.03388e-05
2.36589e-05
7.82098e-05
2.34448e-05
7.57602e-05
2.28024e-05
7.30745e-05
2.16817e-05
7.02641e-05
2.00303e-05
6.74635e-05
1.77927e-05
6.48267e-05
1.49302e-05
6.25171e-05
1.15173e-05
8.23972e-06
8.95774e-05
1.23081e-05
9.01839e-05
1.34455e-05
9.07793e-05
1.46569e-05
9.13395e-05
1.59334e-05
9.18332e-05
1.72601e-05
9.22207e-05
1.86151e-05
9.2455e-05
1.99677e-05
9.24827e-05
2.12781e-05
9.22476e-05
2.24962e-05
9.16956e-05
2.35629e-05
9.0781e-05
2.44106e-05
8.94742e-05
2.49657e-05
8.77688e-05
2.51503e-05
8.56873e-05
2.48839e-05
8.32852e-05
2.40838e-05
8.06514e-05
2.26641e-05
7.79067e-05
2.05374e-05
7.52011e-05
1.76358e-05
7.27031e-05
1.40153e-05
1.04309e-05
9.62902e-05
1.17342e-05
9.68809e-05
1.28548e-05
9.74765e-05
1.40613e-05
9.80603e-05
1.53495e-05
9.86095e-05
1.6711e-05
9.90941e-05
1.81305e-05
9.94766e-05
1.95852e-05
9.9712e-05
2.10426e-05
9.97495e-05
2.24588e-05
9.95345e-05
2.37778e-05
9.90144e-05
2.49308e-05
9.81436e-05
2.58365e-05
9.68921e-05
2.64018e-05
9.52521e-05
2.65239e-05
9.32451e-05
2.60907e-05
9.09263e-05
2.49829e-05
8.8386e-05
2.30778e-05
8.57488e-05
2.02729e-05
8.3166e-05
1.65981e-05
1.28597e-05
0.000103232
1.12255e-05
0.000103762
1.23246e-05
0.000104307
1.35165e-05
0.000104855
1.48011e-05
0.000105392
1.61743e-05
0.000105896
1.76266e-05
0.000106339
1.91417e-05
0.000106688
2.06941e-05
0.000106899
2.22471e-05
0.000106927
2.37504e-05
0.000106719
2.51386e-05
0.000106226
2.63295e-05
0.000105404
2.72238e-05
0.000104223
2.7705e-05
0.000102672
2.7641e-05
0.00010077
2.68858e-05
9.85611e-05
2.52863e-05
9.61269e-05
2.27071e-05
9.35758e-05
1.91492e-05
1.54445e-05
0.000110554
1.07988e-05
0.000110998
1.18805e-05
0.000111455
1.30595e-05
0.000111919
1.43375e-05
0.00011238
1.57132e-05
0.000112826
1.71809e-05
0.000113239
1.87287e-05
0.000113596
2.03366e-05
0.00011387
2.19738e-05
0.000114024
2.35965e-05
0.000114017
2.51451e-05
0.000113805
2.65413e-05
0.000113342
2.76871e-05
0.000112584
2.8463e-05
0.000111496
2.87287e-05
0.000110056
2.83256e-05
0.000108259
2.70838e-05
0.000106122
2.48443e-05
0.000103697
2.15736e-05
1.80936e-05
0.000118458
0.000118763
0.000119087
0.000119426
0.000119779
0.000120137
0.000120493
0.000120832
0.000121135
0.000121377
0.000121525
0.000121541
0.000121377
0.000120981
0.000120298
0.000119271
0.000117841
0.000115951
0.000113546
)
;

boundaryField
{
    zeroGradient_plane
    {
        type            calculated;
        value           nonuniform List<scalar> 
80
(
1.35092e-06
4.55549e-06
7.50302e-06
1.00218e-05
1.20733e-05
1.36657e-05
1.48297e-05
1.56068e-05
1.60433e-05
1.61874e-05
1.60869e-05
1.57875e-05
1.53314e-05
1.4757e-05
1.40978e-05
1.33827e-05
1.26356e-05
1.18759e-05
1.1119e-05
1.0376e-05
1.05119e-05
1.15753e-05
1.27361e-05
1.39978e-05
1.53609e-05
1.68222e-05
1.83731e-05
1.99977e-05
2.16707e-05
2.33546e-05
2.49965e-05
2.65259e-05
2.78512e-05
2.88586e-05
2.94115e-05
2.93528e-05
2.85143e-05
2.67337e-05
2.39791e-05
2.11039e-05
3.81925e-07
1.28548e-06
2.43422e-06
3.88123e-06
5.68823e-06
7.92653e-06
1.06768e-05
1.40277e-05
1.80728e-05
2.29049e-05
2.86069e-05
3.52391e-05
4.28224e-05
5.1319e-05
6.0615e-05
7.05119e-05
8.07371e-05
9.09911e-05
0.000101048
0.000110536
-2.36613e-06
-7.5338e-06
-1.19835e-05
-1.56965e-05
-1.87763e-05
-2.13391e-05
-2.34874e-05
-2.52998e-05
-2.68277e-05
-2.80935e-05
-2.90912e-05
-2.97883e-05
-3.01293e-05
-3.00386e-05
-2.94225e-05
-2.81691e-05
-2.61447e-05
-2.31511e-05
-1.88014e-05
-1.2581e-05
)
;
    }
    inlet
    {
        type            calculated;
        value           nonuniform List<scalar> 
20
(
-1.99006e-05
-2.16598e-05
-2.35745e-05
-2.56584e-05
-2.79266e-05
-3.03953e-05
-3.30822e-05
-3.60066e-05
-3.91895e-05
-4.26538e-05
-4.64243e-05
-5.05282e-05
-5.49948e-05
-5.98562e-05
-6.51474e-05
-7.09063e-05
-7.71743e-05
-8.39964e-05
-9.14216e-05
-9.95031e-05
)
;
    }
    plate
    {
        type            calculated;
        value           uniform 0;
    }
    frontAndBack
    {
        type            empty;
        value           nonuniform 0();
    }
}


// ************************************************************************* //
