/*--------------------------------*- C++ -*----------------------------------*\
| =========                 |                                                 |
| \\      /  F ield         | OpenFOAM: The Open Source CFD Toolbox           |
|  \\    /   O peration     | Version:  v1906                                 |
|   \\  /    A nd           | Web:      www.OpenFOAM.com                      |
|    \\/     M anipulation  |                                                 |
\*---------------------------------------------------------------------------*/
FoamFile
{
    version     2.0;
    format      ascii;
    class       volVectorField;
    location    "0.2";
    object      U;
}
// * * * * * * * * * * * * * * * * * * * * * * * * * * * * * * * * * * * * * //

dimensions      [0 1 -1 0 0 0 0];


internalField   nonuniform List<vector> 
800
(
(0.997849 0.0243127 0)
(0.990618 0.0831283 0)
(0.982736 0.143465 0)
(0.975054 0.204248 0)
(0.967508 0.265715 0)
(0.960152 0.32852 0)
(0.952945 0.393432 0)
(0.945837 0.461157 0)
(0.938756 0.532166 0)
(0.931611 0.6065 0)
(0.924278 0.683566 0)
(0.916583 0.761902 0)
(0.908271 0.838937 0)
(0.898964 0.910732 0)
(0.88817 0.971616 0)
(0.874865 1.01368 0)
(0.855881 1.02621 0)
(0.829455 0.994118 0)
(0.811023 0.890628 0)
(0.7824 0.663051 0)
(0.997941 0.0254331 0)
(0.990851 0.0846932 0)
(0.983026 0.145212 0)
(0.975415 0.206117 0)
(0.967966 0.267701 0)
(0.960739 0.330632 0)
(0.953705 0.39569 0)
(0.946832 0.46359 0)
(0.940078 0.534815 0)
(0.9334 0.609422 0)
(0.926747 0.686843 0)
(0.92006 0.765656 0)
(0.913277 0.843353 0)
(0.906328 0.916096 0)
(0.899225 0.978401 0)
(0.891958 1.02268 0)
(0.883657 1.03894 0)
(0.874695 1.01455 0)
(0.87359 0.929935 0)
(0.864702 0.747981 0)
(0.99812 0.0268646 0)
(0.991327 0.0867497 0)
(0.983646 0.147513 0)
(0.976206 0.20857 0)
(0.968983 0.270293 0)
(0.962051 0.333366 0)
(0.95541 0.398579 0)
(0.949069 0.46665 0)
(0.943055 0.538062 0)
(0.937422 0.612872 0)
(0.932269 0.690506 0)
(0.927766 0.769525 0)
(0.924183 0.847386 0)
(0.921933 0.920185 0)
(0.921654 0.98235 0)
(0.924112 1.02624 0)
(0.929551 1.04193 0)
(0.937771 1.01778 0)
(0.948036 0.939986 0)
(0.943687 0.791839 0)
(0.998353 0.0281908 0)
(0.992006 0.0887406 0)
(0.984603 0.149751 0)
(0.977468 0.210938 0)
(0.970629 0.272762 0)
(0.96419 0.335921 0)
(0.958198 0.401203 0)
(0.952728 0.469312 0)
(0.947905 0.540702 0)
(0.943926 0.615386 0)
(0.941088 0.69271 0)
(0.939824 0.771112 0)
(0.940734 0.84786 0)
(0.944586 0.918791 0)
(0.95225 0.978066 0)
(0.964377 1.01802 0)
(0.980614 1.02943 0)
(0.998878 1.003 0)
(1.01404 0.931395 0)
(1.01319 0.812892 0)
(0.998609 0.0294324 0)
(0.992847 0.0907055 0)
(0.985893 0.151976 0)
(0.979231 0.213269 0)
(0.972966 0.275142 0)
(0.96725 0.338305 0)
(0.962193 0.403529 0)
(0.957958 0.471479 0)
(0.954791 0.542542 0)
(0.953046 0.616627 0)
(0.953219 0.692928 0)
(0.955959 0.769671 0)
(0.962053 0.843864 0)
(0.972322 0.9111 0)
(0.987384 0.965503 0)
(1.00717 0.99999 0)
(1.03019 1.00714 0)
(1.053 0.981038 0)
(1.06972 0.919524 0)
(1.07193 0.826847 0)
(0.998871 0.0306075 0)
(0.993814 0.0926682 0)
(0.987504 0.154211 0)
(0.981515 0.215579 0)
(0.976046 0.277428 0)
(0.971308 0.340478 0)
(0.967491 0.405462 0)
(0.964857 0.472974 0)
(0.963776 0.543291 0)
(0.964749 0.616166 0)
(0.968413 0.690584 0)
(0.975518 0.764534 0)
(0.98683 0.834814 0)
(1.00292 0.896981 0)
(1.02386 0.945554 0)
(1.04871 0.974625 0)
(1.07515 0.978995 0)
(1.09931 0.955754 0)
(1.11624 0.905748 0)
(1.12094 0.834426 0)
(0.999123 0.0316813 0)
(0.994873 0.0945587 0)
(0.989413 0.156369 0)
(0.984321 0.217758 0)
(0.979889 0.279478 0)
(0.9764 0.342247 0)
(0.974127 0.406738 0)
(0.97343 0.473441 0)
(0.974783 0.542484 0)
(0.978785 0.613425 0)
(0.986127 0.685034 0)
(0.99751 0.755107 0)
(1.01349 0.820389 0)
(1.0342 0.876695 0)
(1.0591 0.919324 0)
(1.08661 0.943824 0)
(1.11408 0.947032 0)
(1.13803 0.928128 0)
(1.15484 0.889231 0)
(1.16173 0.835248 0)
(0.999356 0.0326106 0)
(0.995991 0.096277 0)
(0.991586 0.158315 0)
(0.987624 0.219641 0)
(0.984483 0.281087 0)
(0.98251 0.343354 0)
(0.982056 0.407033 0)
(0.983561 0.472479 0)
(0.987564 0.539647 0)
(0.994689 0.607896 0)
(1.00557 0.675819 0)
(1.02074 0.741139 0)
(1.04042 0.800755 0)
(1.06429 0.851003 0)
(1.09132 0.888181 0)
(1.11963 0.909258 0)
(1.14672 0.912635 0)
(1.16981 0.898671 0)
(1.18649 0.86974 0)
(1.19527 0.829736 0)
(0.999566 0.0333583 0)
(0.997139 0.0977151 0)
(0.993975 0.159896 0)
(0.991373 0.221038 0)
(0.989767 0.282022 0)
(0.989551 0.343518 0)
(0.991136 0.40601 0)
(0.995004 0.469706 0)
(1.00171 0.534381 0)
(1.01181 0.599232 0)
(1.02582 0.662761 0)
(1.044 0.722765 0)
(1.06621 0.776488 0)
(1.0918 0.820959 0)
(1.11945 0.853491 0)
(1.14732 0.872236 0)
(1.17328 0.876629 0)
(1.19529 0.867556 0)
(1.21182 0.847162 0)
(1.22211 0.818375 0)
(0.999752 0.033891 0)
(0.99829 0.0987564 0)
(0.996524 0.160936 0)
(0.995489 0.221727 0)
(0.995631 0.282023 0)
(0.997363 0.342437 0)
(1.00112 0.403341 0)
(1.00738 0.464788 0)
(1.01666 0.526405 0)
(1.02939 0.587287 0)
(1.04589 0.645953 0)
(1.06614 0.700417 0)
(1.08975 0.748399 0)
(1.11581 0.787659 0)
(1.14298 0.816407 0)
(1.16964 0.833664 0)
(1.1941 0.83946 0)
(1.21496 0.834817 0)
(1.23126 0.821502 0)
(1.24262 0.801667 0)
(0.999914 0.0341766 0)
(0.999425 0.0992756 0)
(0.999169 0.161244 0)
(0.999866 0.221464 0)
(1.00191 0.280807 0)
(1.00571 0.339809 0)
(1.01167 0.398724 0)
(1.02022 0.457473 0)
(1.03178 0.515577 0)
(1.04663 0.572111 0)
(1.06486 0.625716 0)
(1.08626 0.674725 0)
(1.11023 0.71738 0)
(1.1358 0.752116 0)
(1.16175 0.777852 0)
(1.18675 0.79418 0)
(1.20955 0.801428 0)
(1.2292 0.800558 0)
(1.24512 0.792961 0)
(1.25711 0.780207 0)
(1.00006 0.0341835 0)
(1.00052 0.0991435 0)
(1.00184 0.160614 0)
(1.00438 0.219993 0)
(1.00842 0.27809 0)
(1.0143 0.335353 0)
(1.02238 0.391921 0)
(1.03298 0.447615 0)
(1.0464 0.501911 0)
(1.06276 0.553939 0)
(1.08197 0.602543 0)
(1.10366 0.646422 0)
(1.12715 0.684315 0)
(1.15155 0.715221 0)
(1.17581 0.738564 0)
(1.19891 0.754286 0)
(1.21996 0.762826 0)
(1.23832 0.765016 0)
(1.25365 0.761924 0)
(1.26586 0.754695 0)
(1.00019 0.0338809 0)
(1.00158 0.0982314 0)
(1.00448 0.158841 0)
(1.00889 0.217062 0)
(1.01493 0.273612 0)
(1.02282 0.328836 0)
(1.03281 0.382776 0)
(1.04513 0.435192 0)
(1.05992 0.485568 0)
(1.07716 0.533153 0)
(1.09664 0.577035 0)
(1.1179 0.61627 0)
(1.1403 0.650029 0)
(1.16305 0.677738 0)
(1.18534 0.699162 0)
(1.2064 0.714434 0)
(1.22563 0.724007 0)
(1.24262 0.728569 0)
(1.25714 0.728934 0)
(1.26918 0.725942 0)
(1.0003 0.0332371 0)
(1.00258 0.0964133 0)
(1.00704 0.155731 0)
(1.01329 0.212444 0)
(1.02124 0.267153 0)
(1.03097 0.320096 0)
(1.04259 0.371236 0)
(1.05622 0.420304 0)
(1.07185 0.466839 0)
(1.08937 0.510239 0)
(1.1085 0.549839 0)
(1.12877 0.585013 0)
(1.14963 0.615272 0)
(1.17045 0.640344 0)
(1.19061 0.660208 0)
(1.20956 0.67509 0)
(1.22692 0.685413 0)
(1.24241 0.691736 0)
(1.25591 0.69468 0)
(1.26743 0.694869 0)
(1.00042 0.0322152 0)
(1.00354 0.0935615 0)
(1.00951 0.151096 0)
(1.01751 0.205936 0)
(1.02722 0.258547 0)
(1.03853 0.309052 0)
(1.05145 0.357347 0)
(1.06593 0.403163 0)
(1.0819 0.446112 0)
(1.09917 0.485745 0)
(1.11745 0.521619 0)
(1.13632 0.553362 0)
(1.15534 0.580735 0)
(1.17404 0.603668 0)
(1.19196 0.622265 0)
(1.20877 0.636786 0)
(1.22419 0.647612 0)
(1.23806 0.655193 0)
(1.25034 0.660009 0)
(1.26102 0.662533 0)
(1.00054 0.0307673 0)
(1.00451 0.0895386 0)
(1.01193 0.144755 0)
(1.02158 0.197369 0)
(1.03284 0.247682 0)
(1.04545 0.295696 0)
(1.05928 0.341246 0)
(1.07419 0.384065 0)
(1.09003 0.423839 0)
(1.1066 0.460253 0)
(1.12364 0.493034 0)
(1.14081 0.521999 0)
(1.15779 0.547078 0)
(1.17425 0.568324 0)
(1.1899 0.585909 0)
(1.20451 0.600101 0)
(1.21792 0.611235 0)
(1.23007 0.619681 0)
(1.24091 0.625819 0)
(1.25049 0.630016 0)
(1.00069 0.028827 0)
(1.00556 0.0842024 0)
(1.01443 0.136562 0)
(1.02562 0.186641 0)
(1.03822 0.234542 0)
(1.05184 0.280127 0)
(1.06622 0.32316 0)
(1.08116 0.363374 0)
(1.09648 0.40051 0)
(1.11199 0.43435 0)
(1.12749 0.464744 0)
(1.14274 0.491628 0)
(1.15753 0.515033 0)
(1.17166 0.535079 0)
(1.18496 0.551967 0)
(1.19732 0.565951 0)
(1.20866 0.577328 0)
(1.21895 0.586405 0)
(1.2282 0.593493 0)
(1.23645 0.598886 0)
(1.00093 0.0262207 0)
(1.00691 0.0772827 0)
(1.01726 0.126317 0)
(1.02987 0.173693 0)
(1.0436 0.219237 0)
(1.05792 0.26263 0)
(1.07252 0.303541 0)
(1.08717 0.341673 0)
(1.10169 0.376786 0)
(1.11592 0.408716 0)
(1.12973 0.437383 0)
(1.14297 0.462794 0)
(1.15552 0.485036 0)
(1.16731 0.504265 0)
(1.17825 0.520691 0)
(1.1883 0.534558 0)
(1.19747 0.546132 0)
(1.20576 0.555681 0)
(1.21321 0.563465 0)
(1.21986 0.569733 0)
(1.00141 0.0222063 0)
(1.00888 0.0675775 0)
(1.02075 0.112748 0)
(1.03461 0.157336 0)
(1.04919 0.200754 0)
(1.06392 0.242457 0)
(1.07843 0.281986 0)
(1.0925 0.318976 0)
(1.10596 0.353152 0)
(1.11869 0.384333 0)
(1.13064 0.412436 0)
(1.14176 0.437469 0)
(1.15204 0.459514 0)
(1.16148 0.478723 0)
(1.1701 0.495291 0)
(1.17793 0.509446 0)
(1.18501 0.521431 0)
(1.19139 0.53149 0)
(1.19711 0.539862 0)
(1.20223 0.546771 0)
(1.00205 0.0156028 0)
(1.01117 0.0538623 0)
(1.02437 0.0946183 0)
(1.03924 0.136089 0)
(1.05454 0.177153 0)
(1.06967 0.217037 0)
(1.08427 0.255177 0)
(1.09805 0.291153 0)
(1.11082 0.324656 0)
(1.1225 0.355481 0)
(1.13304 0.383512 0)
(1.14246 0.408724 0)
(1.1508 0.431164 0)
(1.15814 0.450942 0)
(1.16457 0.468213 0)
(1.17017 0.483167 0)
(1.17504 0.496012 0)
(1.17928 0.506966 0)
(1.18295 0.516242 0)
(1.18615 0.524048 0)
(0.424063 0.234819 0)
(0.242699 0.080475 0)
(0.141802 0.0267901 0)
(0.0956747 0.00935608 0)
(0.0730771 0.00376804 0)
(0.0596292 0.00189977 0)
(0.0505136 0.00118042 0)
(0.0438186 0.000828165 0)
(0.0386322 0.000614445 0)
(0.0344794 0.000468357 0)
(0.0310812 0.00036238 0)
(0.0282596 0.000282488 0)
(0.0258984 0.000220169 0)
(0.0239237 0.000169763 0)
(0.0222927 0.000127271 0)
(0.0209894 8.97354e-05 0)
(0.0200151 5.54647e-05 0)
(0.0194073 2.32352e-05 0)
(0.0191183 1.39958e-06 0)
(0.0191852 -1.16923e-05 0)
(0.733142 0.44309 0)
(0.563056 0.224716 0)
(0.414634 0.108171 0)
(0.312785 0.0536157 0)
(0.245823 0.0286111 0)
(0.200331 0.0167733 0)
(0.168178 0.0107361 0)
(0.144487 0.00733942 0)
(0.126328 0.00524892 0)
(0.111967 0.00387155 0)
(0.100342 0.0029165 0)
(0.0907728 0.00222624 0)
(0.0828199 0.00170822 0)
(0.0761982 0.00130439 0)
(0.070735 0.000976334 0)
(0.066348 0.000697731 0)
(0.0630162 0.000452128 0)
(0.060812 0.000233168 0)
(0.0596123 7.21359e-05 0)
(0.0594839 -1.18504e-05 0)
(0.881449 0.575114 0)
(0.767606 0.376044 0)
(0.636708 0.232324 0)
(0.52043 0.14143 0)
(0.427622 0.0872215 0)
(0.356271 0.0555771 0)
(0.301882 0.0369083 0)
(0.260042 0.0255082 0)
(0.227262 0.018236 0)
(0.20107 0.0133917 0)
(0.179774 0.0100338 0)
(0.162221 0.00762007 0)
(0.147629 0.00582331 0)
(0.135475 0.00443696 0)
(0.125429 0.0033247 0)
(0.11732 0.00239429 0)
(0.111082 0.00158653 0)
(0.106797 0.000881911 0)
(0.10428 0.000344863 0)
(0.103605 6.98885e-05 0)
(0.978773 0.658069 0)
(0.905832 0.496786 0)
(0.805732 0.355021 0)
(0.699341 0.245633 0)
(0.600614 0.167754 0)
(0.515408 0.114972 0)
(0.444658 0.0799851 0)
(0.38688 0.0567942 0)
(0.339806 0.0412004 0)
(0.301256 0.0304791 0)
(0.269432 0.0229139 0)
(0.242956 0.0174255 0)
(0.220814 0.0133256 0)
(0.202291 0.0101637 0)
(0.186912 0.00763666 0)
(0.174412 0.00553724 0)
(0.164676 0.00373005 0)
(0.15778 0.00216867 0)
(0.153491 0.000955036 0)
(0.151891 0.00031107 0)
(1.05215 0.712203 0)
(1.00568 0.585007 0)
(0.933862 0.458934 0)
(0.846826 0.347644 0)
(0.755557 0.257312 0)
(0.66812 0.188277 0)
(0.589068 0.137561 0)
(0.520092 0.101083 0)
(0.461075 0.0750147 0)
(0.411025 0.0563049 0)
(0.368693 0.0427136 0)
(0.332881 0.0326668 0)
(0.302579 0.0250763 0)
(0.277007 0.0191889 0)
(0.255614 0.0144778 0)
(0.23807 0.0105736 0)
(0.224226 0.00722961 0)
(0.214156 0.004353 0)
(0.207603 0.00208404 0)
(0.204671 0.000814853 0)
(1.11038 0.748062 0)
(1.08145 0.648764 0)
(1.0321 0.542491 0)
(0.965733 0.439258 0)
(0.888672 0.346574 0)
(0.807662 0.268424 0)
(0.728243 0.205604 0)
(0.654088 0.156772 0)
(0.587091 0.119591 0)
(0.527828 0.0915514 0)
(0.476085 0.070416 0)
(0.431269 0.0543718 0)
(0.392681 0.0420269 0)
(0.359678 0.03234 0)
(0.331758 0.024541 0)
(0.308603 0.0180671 0)
(0.290073 0.0125309 0)
(0.276263 0.00777141 0)
(0.266928 0.00396662 0)
(0.262236 0.00171828 0)
(1.15768 0.770195 0)
(1.1408 0.693475 0)
(1.10837 0.606885 0)
(1.06044 0.516617 0)
(0.999638 0.428911 0)
(0.930176 0.348709 0)
(0.856713 0.27898 0)
(0.783374 0.220736 0)
(0.713225 0.17351 0)
(0.648189 0.135968 0)
(0.589225 0.106445 0)
(0.536622 0.0832841 0)
(0.490276 0.065021 0)
(0.449912 0.0504395 0)
(0.415248 0.0385675 0)
(0.386093 0.0286531 0)
(0.362394 0.0201559 0)
(0.34432 0.012831 0)
(0.331687 0.00689382 0)
(0.324791 0.00320059 0)
(1.19601 0.781213 0)
(1.18768 0.7227 0)
(1.16783 0.653972 0)
(1.13515 0.578363 0)
(1.08996 0.500135 0)
(1.03416 0.423611 0)
(0.970763 0.352383 0)
(0.90321 0.288848 0)
(0.834743 0.234114 0)
(0.768007 0.188206 0)
(0.7049 0.150411 0)
(0.646613 0.119622 0)
(0.593792 0.0946047 0)
(0.546727 0.0741705 0)
(0.505529 0.05726 0)
(0.470276 0.042987 0)
(0.441108 0.0306766 0)
(0.418352 0.0199998 0)
(0.401943 0.0112145 0)
(0.392408 0.00549085 0)
(1.22639 0.782864 0)
(1.22425 0.739045 0)
(1.21374 0.685837 0)
(1.19318 0.62471 0)
(1.16171 0.558138 0)
(1.11962 0.489216 0)
(1.0683 0.42114 0)
(1.00997 0.356693 0)
(0.947301 0.297902 0)
(0.882954 0.245902 0)
(0.819275 0.201006 0)
(0.758127 0.162895 0)
(0.700868 0.130844 0)
(0.64843 0.103929 0)
(0.601449 0.0811754 0)
(0.560409 0.0616736 0)
(0.52576 0.0446736 0)
(0.498086 0.0297871 0)
(0.477516 0.017331 0)
(0.464944 0.00887369 0)
(1.24946 0.776457 0)
(1.25178 0.744493 0)
(1.24818 0.704431 0)
(1.237 0.656638 0)
(1.21697 0.602258 0)
(1.18741 0.543144 0)
(1.14849 0.481627 0)
(1.10122 0.42017 0)
(1.04731 0.361023 0)
(0.98889 0.30594 0)
(0.92822 0.256042 0)
(0.867434 0.211804 0)
(0.808376 0.173163 0)
(0.752549 0.139656 0)
(0.701143 0.110586 0)
(0.655133 0.0851644 0)
(0.615383 0.0626674 0)
(0.582831 0.0427038 0)
(0.557879 0.0256838 0)
(0.541952 0.0136905 0)
(1.26569 0.763134 0)
(1.27115 0.74068 0)
(1.27255 0.71154 0)
(1.26847 0.675481 0)
(1.25756 0.63278 0)
(1.23874 0.58429 0)
(1.21142 0.531408 0)
(1.17565 0.475922 0)
(1.13214 0.419783 0)
(1.08223 0.364847 0)
(1.02768 0.31265 0)
(0.970465 0.264262 0)
(0.912574 0.220245 0)
(0.855857 0.180692 0)
(0.801967 0.145325 0)
(0.752358 0.113626 0)
(0.708363 0.0850203 0)
(0.671342 0.0591983 0)
(0.642032 0.0367193 0)
(0.622574 0.0203318 0)
(1.27549 0.743993 0)
(1.28303 0.729087 0)
(1.28791 0.708853 0)
(1.28901 0.682777 0)
(1.2851 0.650629 0)
(1.27501 0.61257 0)
(1.2578 0.569207 0)
(1.23287 0.521581 0)
(1.20018 0.471073 0)
(1.16022 0.419241 0)
(1.11406 0.367627 0)
(1.06319 0.317569 0)
(1.00937 0.270063 0)
(0.954523 0.225699 0)
(0.900529 0.18466 0)
(0.849215 0.146803 0)
(0.802339 0.111815 0)
(0.761697 0.0795672 0)
(0.728377 0.0508376 0)
(0.705432 0.0292163 0)
(1.27927 0.720158 0)
(1.28802 0.711154 0)
(1.29516 0.698039 0)
(1.29983 0.680207 0)
(1.30102 0.657178 0)
(1.29766 0.628692 0)
(1.2887 0.594791 0)
(1.27327 0.555868 0)
(1.25079 0.512674 0)
(1.2211 0.466259 0)
(1.18454 0.417858 0)
(1.14199 0.36874 0)
(1.09472 0.320052 0)
(1.04439 0.272691 0)
(0.992865 0.227229 0)
(0.942111 0.183905 0)
(0.89418 0.142734 0)
(0.851221 0.103847 0)
(0.814633 0.0683159 0)
(0.788536 0.0407503 0)
(1.27747 0.69281 0)
(1.28672 0.688335 0)
(1.29511 0.680787 0)
(1.30201 0.669573 0)
(1.30665 0.654129 0)
(1.30813 0.633982 0)
(1.3055 0.608822 0)
(1.29779 0.57857 0)
(1.28419 0.54343 0)
(1.2641 0.5039 0)
(1.23731 0.460745 0)
(1.20405 0.414915 0)
(1.16502 0.367423 0)
(1.1214 0.319225 0)
(1.07475 0.271095 0)
(1.02694 0.223564 0)
(0.980083 0.176959 0)
(0.936511 0.131704 0)
(0.897805 0.0892165 0)
(0.869253 0.0552672 0)
(1.27059 0.663234 0)
(1.27975 0.662159 0)
(1.28856 0.65886 0)
(1.29658 0.65281 0)
(1.30326 0.643454 0)
(1.3079 0.630248 0)
(1.30971 0.612702 0)
(1.3078 0.590444 0)
(1.3013 0.563277 0)
(1.28943 0.531226 0)
(1.27162 0.494561 0)
(1.24761 0.453786 0)
(1.21754 0.40958 0)
(1.18203 0.362714 0)
(1.14216 0.313943 0)
(1.09946 0.263913 0)
(1.05586 0.213162 0)
(1.01363 0.162368 0)
(0.974308 0.113296 0)
(0.944382 0.0729516 0)
(1.25922 0.632722 0)
(1.26778 0.634145 0)
(1.27632 0.634015 0)
(1.28456 0.631887 0)
(1.29209 0.627264 0)
(1.29843 0.61961 0)
(1.30295 0.608376 0)
(1.30493 0.593042 0)
(1.30359 0.573163 0)
(1.29813 0.548418 0)
(1.28783 0.518662 0)
(1.27212 0.483949 0)
(1.25074 0.444536 0)
(1.22379 0.400847 0)
(1.19183 0.353413 0)
(1.15587 0.302801 0)
(1.11746 0.249595 0)
(1.0785 0.194621 0)
(1.04028 0.139938 0)
(1.0104 0.0937421 0)
(1.24407 0.603023 0)
(1.25165 0.606239 0)
(1.25938 0.608399 0)
(1.26708 0.609145 0)
(1.2745 0.60805 0)
(1.28128 0.604631 0)
(1.28701 0.598352 0)
(1.29113 0.588649 0)
(1.29302 0.574957 0)
(1.29198 0.556747 0)
(1.2873 0.533577 0)
(1.27833 0.505133 0)
(1.26454 0.47126 0)
(1.24569 0.431982 0)
(1.22184 0.387483 0)
(1.19349 0.338086 0)
(1.16163 0.284258 0)
(1.12759 0.226831 0)
(1.09218 0.168046 0)
(1.06395 0.117139 0)
(1.22603 0.574921 0)
(1.23223 0.579454 0)
(1.23866 0.583305 0)
(1.24521 0.586177 0)
(1.25172 0.587713 0)
(1.25798 0.587484 0)
(1.26369 0.584995 0)
(1.2685 0.579689 0)
(1.27193 0.570961 0)
(1.27346 0.55818 0)
(1.27249 0.540728 0)
(1.26839 0.518039 0)
(1.2606 0.489641 0)
(1.24865 0.455203 0)
(1.23229 0.414558 0)
(1.21155 0.367726 0)
(1.18685 0.314955 0)
(1.1588 0.256967 0)
(1.12756 0.196039 0)
(1.10254 0.142185 0)
(1.20699 0.552663 0)
(1.21177 0.558029 0)
(1.21671 0.562912 0)
(1.22177 0.567069 0)
(1.22686 0.570194 0)
(1.23186 0.571921 0)
(1.2366 0.57181 0)
(1.24087 0.569353 0)
(1.24439 0.563969 0)
(1.24681 0.555025 0)
(1.2477 0.541847 0)
(1.24659 0.523757 0)
(1.24297 0.500111 0)
(1.23633 0.470343 0)
(1.22624 0.434018 0)
(1.21237 0.390877 0)
(1.1946 0.34092 0)
(1.17278 0.284637 0)
(1.14638 0.22413 0)
(1.12559 0.169862 0)
(1.18908 0.530852 0)
(1.19205 0.537231 0)
(1.19521 0.543292 0)
(1.19855 0.548826 0)
(1.20205 0.553573 0)
(1.20564 0.557215 0)
(1.20926 0.559366 0)
(1.21279 0.559568 0)
(1.21607 0.557288 0)
(1.21887 0.551915 0)
(1.2209 0.542774 0)
(1.22181 0.529137 0)
(1.22115 0.510258 0)
(1.21843 0.485413 0)
(1.21308 0.453952 0)
(1.20455 0.415369 0)
(1.19225 0.369414 0)
(1.17529 0.31636 0)
(1.15276 0.258244 0)
(1.13554 0.205652 0)
)
;

boundaryField
{
    zeroGradient_plane
    {
        type            zeroGradient;
    }
    inlet
    {
        type            fixedValue;
        value           uniform (1 0 0);
    }
    plate
    {
        type            noSlip;
    }
    frontAndBack
    {
        type            empty;
    }
}


// ************************************************************************* //
