/*--------------------------------*- C++ -*----------------------------------*\
| =========                 |                                                 |
| \\      /  F ield         | OpenFOAM: The Open Source CFD Toolbox           |
|  \\    /   O peration     | Version:  v1906                                 |
|   \\  /    A nd           | Web:      www.OpenFOAM.com                      |
|    \\/     M anipulation  |                                                 |
\*---------------------------------------------------------------------------*/
FoamFile
{
    version     2.0;
    format      ascii;
    class       volScalarField;
    location    "0.3";
    object      p;
}
// * * * * * * * * * * * * * * * * * * * * * * * * * * * * * * * * * * * * * //

dimensions      [0 2 -2 0 0 0 0];


internalField   nonuniform List<scalar> 
4800
(
5.57361e-11
1.35788e-05
4.09017e-05
6.41062e-05
9.59165e-05
0.000143474
0.000181553
0.000209853
0.000248303
0.000305091
0.000357596
0.000381483
0.000367183
0.000319606
0.000243729
0.00012639
-5.03225e-05
-0.000277697
-0.000492211
-0.000594116
6.15151e-06
1.40911e-05
3.16039e-05
6.02796e-05
9.47746e-05
0.000138768
0.000180632
0.000210761
0.000249015
0.000306673
0.000351427
0.000353576
0.000307454
0.000220541
0.000116218
-6.23537e-07
-0.000145654
-0.000320131
-0.000485983
-0.000565205
6.70853e-06
1.51628e-05
2.92333e-05
5.39363e-05
9.1809e-05
0.00013877
0.000181186
0.000210653
0.000242822
0.000289151
0.000314855
0.000291575
0.000228117
0.000140284
5.18113e-05
-3.02937e-05
-0.000130478
-0.00026239
-0.000399662
-0.000474351
5.91811e-06
1.86273e-05
3.26041e-05
4.51858e-05
8.15346e-05
0.000135561
0.000179905
0.000204193
0.000225233
0.000255424
0.000267672
0.000233682
0.000164432
8.54132e-05
1.41047e-05
-4.95373e-05
-0.000128444
-0.000239619
-0.000361127
-0.000435154
5.6035e-06
1.67135e-05
3.40921e-05
4.38252e-05
6.9159e-05
0.000123163
0.000172055
0.000194978
0.000204256
0.000217073
0.000218612
0.000179034
0.000107303
3.40224e-05
-2.37397e-05
-7.14873e-05
-0.000129609
-0.000214019
-0.00031169
-0.000375909
5.61031e-06
1.37716e-05
3.24582e-05
4.72124e-05
6.13038e-05
0.000100476
0.000151281
0.000178372
0.000182762
0.000181785
0.00016928
0.000124413
5.22e-05
-1.54108e-05
-5.98054e-05
-8.72276e-05
-0.000120297
-0.000179452
-0.000258828
-0.000320053
4.63561e-06
1.16718e-05
2.65856e-05
4.48221e-05
5.89221e-05
8.20337e-05
0.00011808
0.000147297
0.00015651
0.000151428
0.000128353
7.5579e-05
1.6572e-06
-6.16014e-05
-8.99362e-05
-9.25678e-05
-0.000102062
-0.000144842
-0.000217247
-0.000283158
2.1468e-06
9.38914e-06
2.07573e-05
3.54389e-05
5.31109e-05
7.06696e-05
8.71675e-05
0.000102674
0.000116537
0.000120638
9.97798e-05
4.17988e-05
-3.85561e-05
-0.000102972
-0.000122516
-0.000106136
-9.27021e-05
-0.000117735
-0.00018318
-0.000254812
-1.8693e-06
5.42507e-06
1.56159e-05
2.3889e-05
3.87581e-05
5.76888e-05
6.47393e-05
6.0979e-05
6.41438e-05
7.7799e-05
7.44583e-05
2.57597e-05
-5.955e-05
-0.000135153
-0.000160925
-0.000136929
-0.000102071
-0.000100949
-0.000149238
-0.000221476
-6.93696e-06
-8.99761e-07
9.06389e-06
1.28306e-05
1.89616e-05
3.71742e-05
4.60445e-05
3.03376e-05
1.51468e-05
2.33304e-05
3.64789e-05
1.22846e-05
-6.25905e-05
-0.000149815
-0.000195051
-0.000178766
-0.000130786
-0.000102216
-0.000124192
-0.000187118
-1.30516e-05
-9.35784e-06
-6.6013e-07
1.82121e-06
-4.93203e-07
9.5566e-06
2.17084e-05
8.6854e-06
-2.07177e-05
-2.94845e-05
-1.43254e-05
-1.43545e-05
-6.28195e-05
-0.000145112
-0.000209197
-0.000216787
-0.000175595
-0.000129687
-0.00012228
-0.000162287
-2.04975e-05
-1.92869e-05
-1.38071e-05
-1.12514e-05
-1.8045e-05
-1.83505e-05
-8.73216e-06
-1.46488e-05
-4.45071e-05
-6.93691e-05
-6.65595e-05
-5.58737e-05
-7.6199e-05
-0.000136475
-0.000204576
-0.000236998
-0.000219547
-0.000176216
-0.000147638
-0.000159102
-2.97792e-05
-3.03714e-05
-2.87549e-05
-2.71749e-05
-3.50228e-05
-4.34865e-05
-4.16761e-05
-4.31843e-05
-6.54283e-05
-9.60034e-05
-0.000108334
-0.000102317
-0.00010527
-0.000139793
-0.000195336
-0.000239525
-0.000247248
-0.000222544
-0.000191606
-0.000181942
-4.0883e-05
-4.25794e-05
-4.4541e-05
-4.56628e-05
-5.32669e-05
-6.54987e-05
-7.15033e-05
-7.44647e-05
-8.94052e-05
-0.000116513
-0.000138157
-0.000142763
-0.000142894
-0.000158871
-0.000195686
-0.000236392
-0.000259117
-0.000255265
-0.000235944
-0.000220973
-5.35624e-05
-5.60547e-05
-6.05816e-05
-6.48569e-05
-7.27691e-05
-8.59959e-05
-9.75282e-05
-0.000104794
-0.0001162
-0.000137251
-0.000160016
-0.000173462
-0.00017834
-0.000187072
-0.000208827
-0.000239342
-0.000265041
-0.000275266
-0.000270414
-0.000260977
-6.72714e-05
-7.03829e-05
-7.65722e-05
-8.3728e-05
-9.28702e-05
-0.00010617
-0.000120252
-0.0001314
-0.000142835
-0.000159699
-0.000180122
-0.000197153
-0.000207526
-0.000216212
-0.000230365
-0.000251544
-0.000273757
-0.00028929
-0.000294863
-0.000293684
-8.13034e-05
-8.50144e-05
-9.22943e-05
-0.000101534
-0.000112214
-0.000125637
-0.000140694
-0.000154526
-0.000167423
-0.000182436
-0.000200204
-0.000217493
-0.00023122
-0.000242089
-0.000253959
-0.000269467
-0.000287274
-0.000303154
-0.000313756
-0.000318987
-9.48248e-05
-9.90662e-05
-0.00010707
-0.000117625
-0.000129715
-0.000143594
-0.000159023
-0.000174357
-0.000188772
-0.000203444
-0.000219483
-0.000236
-0.000251012
-0.000263874
-0.000275986
-0.000289153
-0.000303698
-0.00031812
-0.000330366
-0.00033941
-0.000107033
-0.000111553
-0.000119927
-0.000131135
-0.000144141
-0.000158506
-0.000174026
-0.000189955
-0.000205486
-0.000220655
-0.000236011
-0.000251567
-0.000266614
-0.000280514
-0.000293377
-0.000305877
-0.000318535
-0.000331199
-0.000343155
-0.00035369
-0.000117903
-0.000123161
-0.000132337
-0.000144434
-0.000158508
-0.000173847
-0.000190013
-0.000206519
-0.000222824
-0.000238684
-0.000254208
-0.000269506
-0.000284425
-0.000298681
-0.000312154
-0.000324984
-0.000337387
-0.000349413
-0.000360878
-0.000371512
-0.000473534
-0.000143007
0.000243379
0.000535954
0.000685966
0.000707293
0.000638102
0.000514085
0.000360839
0.000201523
5.68034e-05
-6.45297e-05
-0.000162247
-0.000235451
-0.000276122
-0.000281291
-0.000267192
-0.000259406
-0.000272804
-0.000303441
-0.000337093
-0.000364175
-0.000387601
-0.000420685
-0.000472587
-0.000531542
-0.000572969
-0.00058686
-0.000588963
-0.000603843
-0.00063745
-0.000670896
-0.000686767
-0.000693347
-0.000715019
-0.000761233
-0.000810801
-0.000836567
-0.000842334
-0.000855472
-0.000886835
-0.000921063
-0.00094406
-0.000962552
-0.000992471
-0.00103293
-0.0010641
-0.00107759
-0.00109033
-0.0011168
-0.00114924
-0.00117696
-0.00120335
-0.00123325
-0.00126172
-0.00128479
-0.00130808
-0.00133729
-0.00136923
-0.00139776
-0.00142214
-0.00144569
-0.00147154
-0.00150133
-0.00153371
-0.0015643
-0.00159098
-0.00161717
-0.0016466
-0.00167791
-0.00170785
-0.00173656
-0.00176633
-0.00179754
-0.00182878
-0.00185958
-0.0018908
-0.00192279
-0.00195502
-0.00198712
-0.00201956
-0.00205298
-0.00208733
-0.00212191
-0.00215609
-0.00219012
-0.00222508
-0.002262
-0.00230085
-0.00234042
-0.0023791
-0.00241631
-0.00245331
-0.00249274
-0.00253724
-0.00258786
-0.00264318
-0.00269974
-0.00275324
-0.00279991
-0.00283771
-0.00286666
-0.00288786
-0.00290285
-0.00291749
-0.00293195
-0.00294717
-0.00296338
-0.0029835
-0.00300494
-0.00302807
-0.00305271
-0.00307857
-0.00310543
-0.00313313
-0.00316154
-0.00319051
-0.00322
-0.00324997
-0.00328029
-0.00331102
-0.00334214
-0.00337362
-0.00340545
-0.00343761
-0.00347009
-0.00350289
-0.003536
-0.00356941
-0.00360311
-0.00363711
-0.00367141
-0.00370598
-0.00374085
-0.003776
-0.00381143
-0.00384714
-0.00388313
-0.00391941
-0.00395597
-0.0039928
-0.00402992
-0.00406733
-0.00410502
-0.00414299
-0.00418125
-0.00421979
-0.00425863
-0.00429775
-0.00433717
-0.00437688
-0.00441689
-0.00445719
-0.0044978
-0.0045387
-0.00457991
-0.00462142
-0.00466324
-0.00470537
-0.00474781
-0.00479057
-0.00483364
-0.00487702
-0.00492073
-0.00496476
-0.00500912
-0.0050538
-0.00509882
-0.00514416
-0.00518985
-0.00523585
-0.00528222
-0.0053289
-0.00537597
-0.00542333
-0.00547112
-0.00551915
-0.00556767
-0.00561638
-0.00566566
-0.00571505
-0.0057651
-0.0058152
-0.00586598
-0.00591686
-0.00596832
-0.00602006
-0.00607213
-0.00612483
-0.00617747
-0.00623113
-0.00628442
-0.00633892
-0.00639307
-0.00644819
-0.00650342
-0.00655901
-0.00661539
-0.00667158
-0.00672886
-0.00678598
-0.00684385
-0.00690215
-0.00696056
-0.0070199
-0.00707918
-0.00713916
-0.00719965
-0.00726006
-0.00732163
-0.00738277
-0.00744465
-0.00750675
-0.00756818
-0.00763023
-0.00769059
-0.00774954
-0.00780713
-0.00785832
-0.00790465
-0.00047756
-0.00022667
9.34618e-05
0.000364758
0.000523784
0.000563051
0.000515872
0.000424832
0.000316257
0.000198356
7.57333e-05
-4.33008e-05
-0.000151262
-0.000236039
-0.000282443
-0.00028973
-0.00027936
-0.000276603
-0.000290357
-0.000314594
-0.000340403
-0.000363677
-0.000387577
-0.000421963
-0.000474042
-0.000533825
-0.000577927
-0.00059375
-0.000594692
-0.000606995
-0.00063966
-0.00067391
-0.000690232
-0.000696256
-0.000717252
-0.000763379
-0.000813752
-0.000840518
-0.000845975
-0.000857571
-0.00088809
-0.000923048
-0.000946851
-0.000964727
-0.00099354
-0.0010343
-0.00106668
-0.00108018
-0.00109187
-0.00111815
-0.0011512
-0.00117888
-0.00120479
-0.00123477
-0.00126356
-0.00128646
-0.00130941
-0.00133857
-0.00137053
-0.00139907
-0.00142362
-0.0014473
-0.00147292
-0.00150244
-0.00153497
-0.00156583
-0.0015924
-0.00161824
-0.00164758
-0.00167909
-0.00170915
-0.00173777
-0.00176745
-0.00179864
-0.00182984
-0.00186059
-0.00189181
-0.00192387
-0.00195609
-0.00198806
-0.00202037
-0.00205378
-0.00208825
-0.0021229
-0.002157
-0.00219081
-0.00222555
-0.00226237
-0.00230129
-0.00234096
-0.00237963
-0.0024167
-0.00245339
-0.00249234
-0.00253623
-0.00258613
-0.0026407
-0.00269651
-0.00274936
-0.00279571
-0.00283368
-0.0028631
-0.00288493
-0.00290182
-0.00291683
-0.00293169
-0.00294743
-0.00296532
-0.00298425
-0.00300562
-0.00302873
-0.00305328
-0.00307902
-0.00310578
-0.00313337
-0.00316173
-0.00319061
-0.00322004
-0.00325001
-0.00328028
-0.00331101
-0.00334212
-0.0033736
-0.00340543
-0.00343759
-0.00347008
-0.00350288
-0.00353598
-0.0035694
-0.0036031
-0.00363711
-0.0036714
-0.00370598
-0.00374084
-0.00377599
-0.00381142
-0.00384714
-0.00388313
-0.00391941
-0.00395596
-0.0039928
-0.00402992
-0.00406733
-0.00410501
-0.00414299
-0.00418125
-0.00421979
-0.00425863
-0.00429775
-0.00433717
-0.00437688
-0.00441689
-0.00445719
-0.0044978
-0.0045387
-0.00457991
-0.00462142
-0.00466324
-0.00470537
-0.00474781
-0.00479056
-0.00483364
-0.00487702
-0.00492073
-0.00496476
-0.00500912
-0.0050538
-0.00509882
-0.00514416
-0.00518985
-0.00523585
-0.00528223
-0.0053289
-0.00537598
-0.00542333
-0.00547112
-0.00551914
-0.00556768
-0.00561637
-0.00566567
-0.00571505
-0.0057651
-0.00581519
-0.00586599
-0.00591685
-0.00596832
-0.00602006
-0.00607213
-0.00612483
-0.00617747
-0.00623114
-0.00628441
-0.00633894
-0.00639305
-0.0064482
-0.00650341
-0.00655902
-0.00661539
-0.00667157
-0.00672887
-0.00678597
-0.00684386
-0.00690215
-0.00696056
-0.00701991
-0.00707917
-0.00713916
-0.00719965
-0.00726006
-0.00732164
-0.00738277
-0.00744465
-0.0075068
-0.00756816
-0.0076303
-0.00769056
-0.00774962
-0.00780714
-0.00785858
-0.00790534
-0.000414447
-0.000216032
5.16155e-05
0.000288576
0.000431785
0.000468112
0.000427776
0.000355455
0.000279808
0.000202801
0.000111626
3.38827e-07
-0.000118117
-0.000216535
-0.000271403
-0.000284
-0.000280953
-0.000287736
-0.00030716
-0.000327441
-0.000342637
-0.000357412
-0.000378911
-0.000413852
-0.000466075
-0.000526769
-0.000574462
-0.000594133
-0.000595346
-0.000605094
-0.000636364
-0.000671387
-0.000688333
-0.000693762
-0.000714226
-0.000761136
-0.000813449
-0.00084185
-0.000847218
-0.000857365
-0.000886909
-0.000922152
-0.000946164
-0.000962995
-0.000990725
-0.00103208
-0.0010659
-0.00107971
-0.00109089
-0.00111751
-0.00115152
-0.00117945
-0.00120511
-0.00123515
-0.00126382
-0.0012858
-0.00130776
-0.00133667
-0.00136902
-0.00139839
-0.00142407
-0.0014484
-0.00147361
-0.00150237
-0.00153472
-0.00156577
-0.00159218
-0.00161775
-0.00164735
-0.00167946
-0.0017097
-0.00173798
-0.00176734
-0.00179862
-0.00183014
-0.001861
-0.00189198
-0.00192373
-0.00195596
-0.00198834
-0.00202103
-0.00205429
-0.00208806
-0.00212211
-0.00215639
-0.00219113
-0.00222672
-0.00226336
-0.00230082
-0.00233862
-0.00237639
-0.00241425
-0.002453
-0.00249392
-0.00253797
-0.00258511
-0.00263411
-0.00268293
-0.00272911
-0.00277051
-0.00280595
-0.00283547
-0.00286063
-0.00288291
-0.00290206
-0.00292145
-0.00293986
-0.00295963
-0.00298062
-0.00300314
-0.00302701
-0.00305208
-0.00307816
-0.00310515
-0.00313287
-0.00316138
-0.00319034
-0.00321986
-0.00324975
-0.00328017
-0.00331093
-0.00334206
-0.00337355
-0.00340539
-0.00343755
-0.00347004
-0.00350285
-0.00353596
-0.00356937
-0.00360308
-0.00363709
-0.00367138
-0.00370596
-0.00374083
-0.00377598
-0.00381141
-0.00384713
-0.00388312
-0.0039194
-0.00395596
-0.0039928
-0.00402992
-0.00406732
-0.00410501
-0.00414298
-0.00418124
-0.00421979
-0.00425863
-0.00429775
-0.00433717
-0.00437688
-0.00441689
-0.00445719
-0.0044978
-0.0045387
-0.00457991
-0.00462142
-0.00466324
-0.00470537
-0.00474781
-0.00479056
-0.00483364
-0.00487702
-0.00492073
-0.00496476
-0.00500912
-0.0050538
-0.00509882
-0.00514416
-0.00518985
-0.00523585
-0.00528222
-0.0053289
-0.00537597
-0.00542333
-0.00547112
-0.00551914
-0.00556767
-0.00561638
-0.00566566
-0.00571505
-0.0057651
-0.00581519
-0.00586599
-0.00591685
-0.00596833
-0.00602005
-0.00607215
-0.00612482
-0.00617748
-0.00623114
-0.00628441
-0.00633894
-0.00639304
-0.00644822
-0.00650338
-0.00655904
-0.00661538
-0.00667156
-0.00672889
-0.00678594
-0.00684389
-0.00690214
-0.00696055
-0.00701993
-0.00707914
-0.00713918
-0.00719965
-0.00726006
-0.00732165
-0.00738277
-0.00744465
-0.00750682
-0.00756815
-0.00763035
-0.00769056
-0.00774968
-0.00780722
-0.0078588
-0.00790576
-0.00039658
-0.000236455
-1.0381e-05
0.000193506
0.000316827
0.000346778
0.000310102
0.000249255
0.000193463
0.000143642
8.12493e-05
-7.92233e-06
-0.000115435
-0.000212626
-0.000271065
-0.000287558
-0.000288283
-0.000301741
-0.000330633
-0.000356348
-0.000367051
-0.000371239
-0.000384714
-0.000416812
-0.000468073
-0.000528059
-0.000577207
-0.000601183
-0.000606413
-0.000616853
-0.000646637
-0.000680624
-0.000696847
-0.000700467
-0.000718657
-0.000764862
-0.000818558
-0.000848703
-0.00085445
-0.000863775
-0.000892399
-0.000926894
-0.000950029
-0.000966115
-0.000993739
-0.00103572
-0.00107059
-0.00108502
-0.00109577
-0.00112138
-0.00115477
-0.0011826
-0.00120839
-0.00123872
-0.00126759
-0.00128922
-0.00131047
-0.00133911
-0.00137187
-0.00140181
-0.00142765
-0.0014516
-0.00147624
-0.00150479
-0.00153744
-0.00156876
-0.001595
-0.00162021
-0.00164975
-0.00168203
-0.0017123
-0.00174043
-0.00176966
-0.00180093
-0.00183239
-0.00186314
-0.00189408
-0.00192587
-0.0019581
-0.00199031
-0.00202275
-0.00205586
-0.00208972
-0.00212396
-0.00215826
-0.00219269
-0.00222766
-0.00226371
-0.00230102
-0.00233919
-0.00237752
-0.00241565
-0.00245393
-0.00249336
-0.00253504
-0.00257956
-0.00262637
-0.00267383
-0.00271978
-0.00276222
-0.00279976
-0.00283179
-0.00285859
-0.002882
-0.0029018
-0.00292106
-0.00293954
-0.00295975
-0.00298109
-0.00300367
-0.00302756
-0.00305261
-0.00307853
-0.00310542
-0.00313306
-0.00316146
-0.0031904
-0.00321982
-0.00324971
-0.00328008
-0.00331084
-0.00334198
-0.00337347
-0.00340532
-0.00343749
-0.00346999
-0.0035028
-0.00353592
-0.00356934
-0.00360305
-0.00363706
-0.00367136
-0.00370594
-0.00374081
-0.00377596
-0.0038114
-0.00384712
-0.00388311
-0.00391939
-0.00395595
-0.00399279
-0.00402991
-0.00406732
-0.00410501
-0.00414298
-0.00418124
-0.00421979
-0.00425862
-0.00429775
-0.00433717
-0.00437688
-0.00441689
-0.00445719
-0.00449779
-0.0045387
-0.00457991
-0.00462142
-0.00466324
-0.00470537
-0.00474781
-0.00479056
-0.00483363
-0.00487702
-0.00492073
-0.00496476
-0.00500912
-0.0050538
-0.00509882
-0.00514416
-0.00518985
-0.00523585
-0.00528222
-0.0053289
-0.00537598
-0.00542333
-0.00547112
-0.00551914
-0.00556768
-0.00561637
-0.00566567
-0.00571505
-0.0057651
-0.00581519
-0.00586599
-0.00591685
-0.00596833
-0.00602005
-0.00607215
-0.00612483
-0.00617747
-0.00623114
-0.0062844
-0.00633895
-0.00639303
-0.00644823
-0.00650338
-0.00655904
-0.00661538
-0.00667156
-0.0067289
-0.00678593
-0.00684389
-0.00690214
-0.00696054
-0.00701995
-0.00707912
-0.0071392
-0.00719964
-0.00726006
-0.00732166
-0.00738278
-0.00744465
-0.00750685
-0.00756815
-0.00763039
-0.00769059
-0.00774972
-0.00780735
-0.00785897
-0.00790615
-0.000351747
-0.000227064
-4.31863e-05
0.000126408
0.000228633
0.000249485
0.000212836
0.000158839
0.000116127
8.56298e-05
4.60547e-05
-2.09801e-05
-0.000111473
-0.000201131
-0.000261374
-0.000281859
-0.000282861
-0.000297004
-0.000334554
-0.000373915
-0.000391036
-0.000388793
-0.000390712
-0.000415619
-0.000464306
-0.000521738
-0.000567976
-0.000592623
-0.000603
-0.000618498
-0.00064983
-0.00068345
-0.000699171
-0.00070068
-0.000714714
-0.000758225
-0.000813565
-0.000847674
-0.000855765
-0.000865229
-0.000893726
-0.000927957
-0.000949533
-0.000963418
-0.000989995
-0.00103286
-0.0010698
-0.00108577
-0.00109636
-0.00112074
-0.00115326
-0.00118106
-0.00120736
-0.00123856
-0.00126813
-0.00128944
-0.00130932
-0.00133684
-0.00136987
-0.00140108
-0.00142785
-0.0014517
-0.0014757
-0.00150394
-0.00153687
-0.00156853
-0.00159464
-0.00161948
-0.00164898
-0.0016816
-0.00171214
-0.00174015
-0.00176917
-0.00180044
-0.00183207
-0.00186288
-0.00189368
-0.00192529
-0.00195748
-0.00198987
-0.0020225
-0.00205558
-0.00208907
-0.00212287
-0.00215703
-0.00219176
-0.00222722
-0.00226341
-0.00230011
-0.00233707
-0.00237424
-0.00241185
-0.00245042
-0.00249051
-0.00253244
-0.00257594
-0.00262006
-0.00266347
-0.00270476
-0.00274282
-0.002777
-0.00280734
-0.00283456
-0.00285938
-0.00288318
-0.00290504
-0.002929
-0.00295197
-0.00297546
-0.0029995
-0.00302443
-0.00305025
-0.00307657
-0.00310407
-0.00313212
-0.00316063
-0.0031898
-0.00321939
-0.00324941
-0.00327983
-0.00331064
-0.00334181
-0.00337334
-0.0034052
-0.00343739
-0.0034699
-0.00350272
-0.00353585
-0.00356928
-0.003603
-0.00363702
-0.00367132
-0.00370591
-0.00374078
-0.00377594
-0.00381138
-0.0038471
-0.0038831
-0.00391938
-0.00395594
-0.00399278
-0.0040299
-0.00406731
-0.004105
-0.00414297
-0.00418124
-0.00421978
-0.00425862
-0.00429775
-0.00433716
-0.00437688
-0.00441688
-0.00445719
-0.00449779
-0.0045387
-0.00457991
-0.00462142
-0.00466324
-0.00470537
-0.00474781
-0.00479056
-0.00483363
-0.00487702
-0.00492073
-0.00496476
-0.00500912
-0.0050538
-0.00509882
-0.00514416
-0.00518985
-0.00523585
-0.00528222
-0.0053289
-0.00537597
-0.00542333
-0.00547112
-0.00551914
-0.00556768
-0.00561637
-0.00566567
-0.00571505
-0.0057651
-0.00581519
-0.00586599
-0.00591684
-0.00596834
-0.00602005
-0.00607215
-0.00612482
-0.00617748
-0.00623114
-0.0062844
-0.00633897
-0.00639301
-0.00644825
-0.00650336
-0.00655905
-0.00661539
-0.00667154
-0.00672892
-0.00678591
-0.00684391
-0.00690214
-0.00696053
-0.00701998
-0.0070791
-0.00713921
-0.00719965
-0.00726005
-0.00732168
-0.00738278
-0.00744466
-0.00750687
-0.00756816
-0.00763043
-0.00769063
-0.00774977
-0.00780747
-0.00785913
-0.00790647
-0.000313451
-0.00022227
-7.53859e-05
6.55915e-05
0.000150255
0.00016141
0.000120712
6.87151e-05
3.43234e-05
1.79649e-05
-2.32375e-06
-4.8402e-05
-0.000122506
-0.000204602
-0.000264748
-0.000286542
-0.000284965
-0.000294819
-0.000334986
-0.000386881
-0.000416647
-0.000415533
-0.000407846
-0.000423206
-0.000468575
-0.000525157
-0.000568949
-0.000591461
-0.000603267
-0.000623355
-0.000659285
-0.000696092
-0.00071358
-0.000713214
-0.000720566
-0.000757616
-0.000812823
-0.000851663
-0.000862663
-0.000871201
-0.000899049
-0.000934925
-0.000956812
-0.000966972
-0.000989392
-0.00103286
-0.00107411
-0.00109271
-0.0011024
-0.00112512
-0.00115678
-0.0011836
-0.00120908
-0.00124116
-0.00127261
-0.00129437
-0.00131283
-0.00133876
-0.00137156
-0.00140393
-0.00143204
-0.00145597
-0.00147866
-0.00150582
-0.00153914
-0.00157185
-0.0015981
-0.0016222
-0.00165125
-0.00168416
-0.00171502
-0.0017429
-0.00177162
-0.0018028
-0.00183446
-0.00186525
-0.00189597
-0.00192754
-0.0019597
-0.00199195
-0.00202435
-0.00205724
-0.00209071
-0.00212461
-0.00215881
-0.00219331
-0.00222822
-0.00226371
-0.00229993
-0.00233689
-0.0023744
-0.00241232
-0.00245066
-0.00248962
-0.00252945
-0.00257026
-0.00261181
-0.00265338
-0.00269405
-0.00273287
-0.002769
-0.00280199
-0.00283194
-0.00285914
-0.00288382
-0.00290695
-0.00292946
-0.00295231
-0.00297547
-0.00299967
-0.00302466
-0.00305041
-0.00307725
-0.00310436
-0.00313227
-0.00316066
-0.00318966
-0.00321918
-0.00324917
-0.0032796
-0.00331042
-0.00334161
-0.00337316
-0.00340504
-0.00343725
-0.00346978
-0.00350262
-0.00353576
-0.0035692
-0.00360293
-0.00363696
-0.00367127
-0.00370586
-0.00374074
-0.00377591
-0.00381135
-0.00384707
-0.00388307
-0.00391936
-0.00395592
-0.00399276
-0.00402989
-0.0040673
-0.00410499
-0.00414297
-0.00418123
-0.00421978
-0.00425861
-0.00429774
-0.00433716
-0.00437687
-0.00441688
-0.00445719
-0.00449779
-0.0045387
-0.0045799
-0.00462142
-0.00466324
-0.00470537
-0.00474781
-0.00479056
-0.00483363
-0.00487702
-0.00492073
-0.00496476
-0.00500912
-0.0050538
-0.00509882
-0.00514416
-0.00518985
-0.00523585
-0.00528222
-0.0053289
-0.00537597
-0.00542333
-0.00547112
-0.00551914
-0.00556768
-0.00561637
-0.00566567
-0.00571504
-0.00576511
-0.00581519
-0.00586599
-0.00591684
-0.00596834
-0.00602005
-0.00607215
-0.00612482
-0.00617747
-0.00623115
-0.00628439
-0.00633898
-0.006393
-0.00644826
-0.00650336
-0.00655905
-0.00661539
-0.00667153
-0.00672893
-0.0067859
-0.00684391
-0.00690214
-0.00696052
-0.00701999
-0.00707909
-0.00713922
-0.00719966
-0.00726004
-0.0073217
-0.00738279
-0.00744468
-0.0075069
-0.00756819
-0.00763047
-0.00769068
-0.00774983
-0.00780759
-0.00785929
-0.00790674
-0.00029373
-0.000229189
-0.000109935
1.0751e-05
8.31411e-05
8.66901e-05
4.00597e-05
-1.53975e-05
-4.66709e-05
-5.02585e-05
-5.01547e-05
-7.57547e-05
-0.000136975
-0.000214995
-0.000275652
-0.000297899
-0.000293525
-0.000297644
-0.000335416
-0.000394368
-0.000437219
-0.000444083
-0.000432199
-0.000435988
-0.000473081
-0.000528544
-0.000573654
-0.000595125
-0.000603767
-0.000621976
-0.000659921
-0.000702117
-0.000725001
-0.00072561
-0.000726801
-0.000754872
-0.000807489
-0.000851737
-0.000867592
-0.000874918
-0.000900168
-0.000938202
-0.000964217
-0.000972481
-0.000987459
-0.00102773
-0.00107373
-0.00109726
-0.00110629
-0.00112664
-0.00115825
-0.00118493
-0.00120848
-0.00124009
-0.00127399
-0.00129775
-0.0013152
-0.00133881
-0.00137034
-0.00140317
-0.00143298
-0.00145828
-0.00148029
-0.00150551
-0.00153833
-0.00157245
-0.00159965
-0.00162294
-0.00165096
-0.00168405
-0.0017156
-0.00174356
-0.00177187
-0.00180284
-0.00183464
-0.0018655
-0.00189607
-0.00192745
-0.00195954
-0.00199183
-0.00202427
-0.0020571
-0.00209033
-0.00212389
-0.0021578
-0.00219219
-0.00222716
-0.00226271
-0.00229872
-0.00233504
-0.00237164
-0.00240863
-0.00244622
-0.00248467
-0.00252403
-0.0025641
-0.00260434
-0.00264401
-0.00268223
-0.00271832
-0.00275196
-0.00278314
-0.00281203
-0.00283917
-0.0028652
-0.00289058
-0.00291579
-0.00294118
-0.00296682
-0.00299284
-0.00301928
-0.00304622
-0.0030738
-0.00310184
-0.00313037
-0.00315931
-0.00318868
-0.00321845
-0.00324861
-0.00327915
-0.00331005
-0.0033413
-0.0033729
-0.00340482
-0.00343706
-0.00346962
-0.00350248
-0.00353564
-0.00356909
-0.00360284
-0.00363688
-0.0036712
-0.0037058
-0.00374069
-0.00377586
-0.00381131
-0.00384704
-0.00388304
-0.00391933
-0.0039559
-0.00399274
-0.00402987
-0.00406728
-0.00410498
-0.00414296
-0.00418122
-0.00421977
-0.00425861
-0.00429774
-0.00433716
-0.00437687
-0.00441688
-0.00445718
-0.00449779
-0.00453869
-0.0045799
-0.00462142
-0.00466324
-0.00470537
-0.00474781
-0.00479056
-0.00483363
-0.00487702
-0.00492073
-0.00496476
-0.00500912
-0.0050538
-0.00509882
-0.00514416
-0.00518985
-0.00523585
-0.00528222
-0.0053289
-0.00537598
-0.00542333
-0.00547112
-0.00551914
-0.00556768
-0.00561637
-0.00566567
-0.00571504
-0.00576511
-0.00581518
-0.005866
-0.00591684
-0.00596834
-0.00602005
-0.00607215
-0.00612482
-0.00617747
-0.00623116
-0.00628438
-0.00633899
-0.00639299
-0.00644827
-0.00650336
-0.00655905
-0.0066154
-0.00667152
-0.00672895
-0.00678589
-0.00684391
-0.00690215
-0.0069605
-0.00702001
-0.00707909
-0.00713922
-0.00719968
-0.00726003
-0.00732172
-0.0073828
-0.00744469
-0.00750694
-0.00756822
-0.00763052
-0.00769074
-0.0077499
-0.00780771
-0.00785944
-0.00790696
-0.000283271
-0.000243373
-0.000146786
-4.01925e-05
2.63668e-05
2.75424e-05
-2.32797e-05
-8.47552e-05
-0.000118487
-0.000115484
-0.000100232
-0.00010911
-0.000158588
-0.000232021
-0.000293754
-0.000318594
-0.000313715
-0.000311339
-0.000339731
-0.000396331
-0.000448374
-0.000467329
-0.000458375
-0.000452898
-0.000477744
-0.000528973
-0.00057769
-0.000603003
-0.000610381
-0.000622795
-0.000657358
-0.000703658
-0.00073489
-0.000740826
-0.000739237
-0.000757799
-0.000803891
-0.000851373
-0.000873551
-0.000880659
-0.000900863
-0.00093816
-0.000970129
-0.000982093
-0.000991234
-0.00102357
-0.00107105
-0.00110183
-0.00111253
-0.00112944
-0.00116038
-0.00118869
-0.00121063
-0.00123915
-0.00127408
-0.00130148
-0.00131982
-0.00134134
-0.00137109
-0.00140352
-0.00143415
-0.0014613
-0.0014842
-0.00150764
-0.00153836
-0.00157321
-0.00160255
-0.001626
-0.00165245
-0.0016849
-0.00171726
-0.00174575
-0.00177364
-0.00180415
-0.001836
-0.00186705
-0.00189759
-0.00192881
-0.0019608
-0.00199299
-0.00202525
-0.00205788
-0.00209103
-0.00212459
-0.00215848
-0.0021927
-0.00222726
-0.00226222
-0.00229764
-0.00233356
-0.00237001
-0.00240693
-0.00244427
-0.00248198
-0.00251999
-0.00255819
-0.0025964
-0.0026343
-0.00267147
-0.00270754
-0.00274218
-0.00277513
-0.00280627
-0.00283571
-0.00286366
-0.00289038
-0.00291641
-0.00294207
-0.00296767
-0.00299354
-0.00301982
-0.0030466
-0.00307389
-0.00310168
-0.00313
-0.00315883
-0.00318814
-0.00321791
-0.0032481
-0.00327869
-0.00330964
-0.00334094
-0.00337258
-0.00340454
-0.00343682
-0.0034694
-0.00350229
-0.00353548
-0.00356895
-0.00360272
-0.00363677
-0.00367111
-0.00370572
-0.00374062
-0.0037758
-0.00381126
-0.00384699
-0.003883
-0.0039193
-0.00395587
-0.00399272
-0.00402985
-0.00406727
-0.00410496
-0.00414294
-0.00418121
-0.00421976
-0.0042586
-0.00429773
-0.00433715
-0.00437686
-0.00441687
-0.00445718
-0.00449779
-0.00453869
-0.0045799
-0.00462141
-0.00466323
-0.00470536
-0.00474781
-0.00479056
-0.00483363
-0.00487702
-0.00492073
-0.00496476
-0.00500912
-0.0050538
-0.00509882
-0.00514416
-0.00518985
-0.00523585
-0.00528222
-0.0053289
-0.00537598
-0.00542333
-0.00547112
-0.00551914
-0.00556768
-0.00561637
-0.00566567
-0.00571504
-0.00576511
-0.00581518
-0.005866
-0.00591684
-0.00596834
-0.00602005
-0.00607215
-0.00612483
-0.00617746
-0.00623116
-0.00628437
-0.00633899
-0.00639299
-0.00644827
-0.00650336
-0.00655904
-0.00661541
-0.00667151
-0.00672896
-0.00678588
-0.00684391
-0.00690216
-0.00696049
-0.00702002
-0.00707908
-0.00713922
-0.0071997
-0.00726003
-0.00732175
-0.00738281
-0.00744471
-0.00750698
-0.00756825
-0.00763057
-0.00769081
-0.00774997
-0.00780782
-0.00785958
-0.00790715
-0.000269609
-0.000259421
-0.000189714
-9.73191e-05
-3.0676e-05
-2.26989e-05
-6.99681e-05
-0.000135548
-0.000177608
-0.000179532
-0.000159285
-0.000153188
-0.000184719
-0.000246489
-0.000308039
-0.00034018
-0.000340258
-0.000333253
-0.000348798
-0.000395571
-0.000450944
-0.000483051
-0.0004842
-0.000476401
-0.000489656
-0.000532487
-0.000582794
-0.000614406
-0.000624092
-0.000630956
-0.000657175
-0.000701931
-0.000739977
-0.000753997
-0.000754072
-0.000765411
-0.000802466
-0.000849586
-0.000878719
-0.000888909
-0.000904512
-0.000937502
-0.000973261
-0.000992593
-0.00100058
-0.00102317
-0.00106646
-0.00110354
-0.00111923
-0.00113344
-0.00116202
-0.00119271
-0.00121522
-0.00123984
-0.00127308
-0.00130388
-0.00132498
-0.00134531
-0.0013729
-0.00140425
-0.00143458
-0.00146306
-0.0014883
-0.00151152
-0.00153923
-0.00157289
-0.00160444
-0.00162952
-0.00165466
-0.00168552
-0.0017183
-0.00174784
-0.00177564
-0.00180542
-0.00183703
-0.00186826
-0.00189878
-0.00192975
-0.00196157
-0.00199372
-0.00202596
-0.00205845
-0.00209134
-0.00212457
-0.00215811
-0.00219203
-0.00222639
-0.00226121
-0.00229643
-0.00233196
-0.00236775
-0.00240382
-0.0024402
-0.00247695
-0.00251407
-0.00255143
-0.00258874
-0.00262565
-0.00266174
-0.00269658
-0.00272993
-0.00276172
-0.00279205
-0.00282112
-0.00284927
-0.00287682
-0.00290408
-0.00293124
-0.00295847
-0.00298591
-0.00301362
-0.00304164
-0.00307001
-0.0030987
-0.00312773
-0.00315709
-0.0031868
-0.00321685
-0.00324724
-0.00327797
-0.00330904
-0.00334043
-0.00337214
-0.00340417
-0.0034365
-0.00346913
-0.00350205
-0.00353527
-0.00356877
-0.00360256
-0.00363664
-0.00367099
-0.00370562
-0.00374053
-0.00377572
-0.00381119
-0.00384693
-0.00388295
-0.00391925
-0.00395583
-0.00399269
-0.00402982
-0.00406724
-0.00410494
-0.00414292
-0.00418119
-0.00421975
-0.00425859
-0.00429772
-0.00433714
-0.00437686
-0.00441687
-0.00445717
-0.00449778
-0.00453869
-0.0045799
-0.00462141
-0.00466323
-0.00470536
-0.0047478
-0.00479056
-0.00483363
-0.00487702
-0.00492073
-0.00496476
-0.00500912
-0.0050538
-0.00509882
-0.00514416
-0.00518985
-0.00523585
-0.00528222
-0.0053289
-0.00537598
-0.00542333
-0.00547112
-0.00551914
-0.00556768
-0.00561637
-0.00566567
-0.00571504
-0.00576511
-0.00581518
-0.005866
-0.00591684
-0.00596834
-0.00602005
-0.00607215
-0.00612483
-0.00617746
-0.00623117
-0.00628437
-0.006339
-0.00639298
-0.00644827
-0.00650336
-0.00655904
-0.00661542
-0.0066715
-0.00672897
-0.00678588
-0.00684391
-0.00690217
-0.00696048
-0.00702004
-0.00707909
-0.00713922
-0.00719972
-0.00726003
-0.00732177
-0.00738284
-0.00744473
-0.00750702
-0.00756829
-0.00763062
-0.00769089
-0.00775004
-0.00780793
-0.0078597
-0.00790731
-0.000248588
-0.000269184
-0.000232978
-0.000160115
-9.34841e-05
-7.14483e-05
-0.000104192
-0.000167284
-0.000220057
-0.000236068
-0.000220415
-0.00020339
-0.000214917
-0.000260741
-0.000319647
-0.00036115
-0.000371193
-0.000364094
-0.000368403
-0.000401544