/*--------------------------------*- C++ -*----------------------------------*\
| =========                 |                                                 |
| \\      /  F ield         | OpenFOAM: The Open Source CFD Toolbox           |
|  \\    /   O peration     | Version:  v1906                                 |
|   \\  /    A nd           | Web:      www.OpenFOAM.com                      |
|    \\/     M anipulation  |                                                 |
\*---------------------------------------------------------------------------*/
FoamFile
{
    version     2.0;
    format      ascii;
    class       surfaceScalarField;
    location    "0.3";
    object      phi;
}
// * * * * * * * * * * * * * * * * * * * * * * * * * * * * * * * * * * * * * //

dimensions      [0 3 -1 0 0 0 0];
oriented        oriented;


internalField   nonuniform List<scalar> 
9340
(
1.99009e-05
-3.8269e-10
1.9901e-05
-2.78996e-09
1.9901e-05
4.23887e-10
1.99006e-05
2.19606e-09
1.98999e-05
1.64095e-09
1.98994e-05
-2.28379e-11
1.98989e-05
-5.50226e-10
1.98986e-05
-4.57816e-10
1.98983e-05
-1.54528e-10
1.98979e-05
1.32906e-09
1.98969e-05
2.96493e-09
1.98947e-05
5.03333e-09
1.98907e-05
8.21244e-09
1.98851e-05
1.07759e-08
1.98784e-05
1.37469e-08
1.98714e-05
1.53242e-08
1.9865e-05
1.56264e-08
1.98599e-05
1.43497e-08
1.98567e-05
1.21349e-08
9.84062e-09
1.98549e-05
2.16599e-05
-4.91355e-10
2.16583e-05
-1.21645e-09
2.16593e-05
-5.24766e-10
2.166e-05
1.46907e-09
2.16595e-05
2.19588e-09
2.16585e-05
8.88414e-10
2.16577e-05
3.45834e-10
2.16568e-05
4.28123e-10
2.16556e-05
1.0455e-09
2.16535e-05
3.39839e-09
2.16502e-05
6.24807e-09
2.16462e-05
9.09712e-09
2.16418e-05
1.25693e-08
2.16383e-05
1.42812e-08
2.16364e-05
1.56322e-08
2.16358e-05
1.59442e-08
2.16362e-05
1.5208e-08
2.16371e-05
1.34766e-08
2.1638e-05
1.11942e-08
8.90682e-09
2.16389e-05
2.35746e-05
-5.93609e-10
2.35731e-05
3.14645e-10
2.35731e-05
-6.01796e-10
2.35745e-05
1.38401e-10
2.35744e-05
2.29575e-09
2.35733e-05
1.94273e-09
2.35721e-05
1.6008e-09
2.35704e-05
2.1274e-09
2.35683e-05
3.16116e-09
2.35659e-05
5.7683e-09
2.35631e-05
9.03307e-09
2.35609e-05
1.13173e-08
2.35597e-05
1.37412e-08
2.35587e-05
1.52898e-08
2.35586e-05
1.57051e-08
2.35592e-05
1.54026e-08
2.35597e-05
1.47094e-08
2.35602e-05
1.29451e-08
2.35606e-05
1.07744e-08
8.64962e-09
2.35609e-05
2.56581e-05
-2.1971e-10
2.56582e-05
1.55046e-10
2.56567e-05
8.8722e-10
2.5657e-05
-9.58433e-11
2.5658e-05
1.25762e-09
2.56572e-05
2.70751e-09
2.56555e-05
3.38849e-09
2.56535e-05
4.11805e-09
2.56513e-05
5.31307e-09
2.56493e-05
7.76138e-09
2.56476e-05
1.07266e-08
2.56462e-05
1.27174e-08
2.56455e-05
1.45084e-08
2.5645e-05
1.57277e-08
2.56447e-05
1.5984e-08
2.56448e-05
1.53482e-08
2.56454e-05
1.40946e-08
2.56462e-05
1.21245e-08
2.56471e-05
9.93255e-09
8.01312e-09
2.56477e-05
2.79262e-05
1.79726e-10
2.79265e-05
-1.64638e-10
2.79256e-05
1.83066e-09
2.79244e-05
1.11323e-09
2.79251e-05
5.57856e-10
2.79251e-05
2.71319e-09
2.79234e-05
5.04916e-09
2.79212e-05
6.32122e-09
2.79191e-05
7.45644e-09
2.79175e-05
9.37417e-09
2.79163e-05
1.18807e-08
2.79155e-05
1.35353e-08
2.79153e-05
1.47147e-08
2.79156e-05
1.54501e-08
2.79161e-05
1.54006e-08
2.7917e-05
1.45033e-08
2.7918e-05
1.30444e-08
2.79189e-05
1.12813e-08
2.79193e-05
9.46432e-09
7.80837e-09
2.79195e-05
3.03952e-05
2.90533e-10
3.03948e-05
2.05599e-10
3.03949e-05
1.73933e-09
3.03934e-05
2.55947e-09
3.03924e-05
1.63327e-09
3.03926e-05
2.48357e-09
3.03921e-05
5.58035e-09
3.03902e-05
8.17321e-09
3.03881e-05
9.56172e-09
3.03867e-05
1.07626e-08
3.03861e-05
1.25031e-08
3.03858e-05
1.38186e-08
3.03861e-05
1.44383e-08
3.0387e-05
1.45701e-08
3.03881e-05
1.42866e-08
3.03892e-05
1.33778e-08
3.03902e-05
1.20599e-08
3.03907e-05
1.07481e-08
3.03909e-05
9.27287e-09
7.87192e-09
3.03909e-05
3.30822e-05
2.82018e-10
3.30815e-05
8.93475e-10
3.30817e-05
1.56059e-09
3.30811e-05
3.1487e-09
3.30792e-05
3.4764e-09
3.30783e-05
3.40363e-09
3.30783e-05
5.55947e-09
3.30776e-05
8.89909e-09
3.3076e-05
1.11403e-08
3.30746e-05
1.21637e-08
3.30743e-05
1.28322e-08
3.30747e-05
1.34553e-08
3.30755e-05
1.36387e-08
3.30766e-05
1.34411e-08
3.30777e-05
1.31828e-08
3.30786e-05
1.25203e-08
3.30791e-05
1.14696e-08
3.30796e-05
1.03366e-08
3.30799e-05
8.97694e-09
7.74345e-09
3.308e-05
3.60066e-05
3.08764e-10
3.60061e-05
1.3811e-09
3.60056e-05
2.04218e-09
3.60056e-05
3.1776e-09
3.60043e-05
4.70259e-09
3.60025e-05
5.23323e-09
3.6002e-05
6.07451e-09
3.60023e-05
8.57212e-09
3.6002e-05
1.14574e-08
3.60012e-05
1.29986e-08
3.60006e-05
1.33985e-08
3.6001e-05
1.30586e-08
3.60019e-05
1.27437e-08
3.60029e-05
1.24601e-08
3.60038e-05
1.22369e-08
3.60046e-05
1.17743e-08
3.60051e-05
1.0944e-08
3.60056e-05
9.84097e-09
3.60059e-05
8.68451e-09
7.60491e-09
3.6006e-05
3.91893e-05
4.731e-10
3.91891e-05
1.61779e-09
3.91883e-05
2.80139e-09
3.91881e-05
3.4295e-09
3.91878e-05
5.01199e-09
3.91864e-05
6.66312e-09
3.9185e-05
7.45495e-09
3.9185e-05
8.50325e-09
3.91859e-05
1.06488e-08
3.9186e-05
1.28579e-08
3.91858e-05
1.36195e-08
3.91856e-05
1.31881e-08
3.91863e-05
1.20751e-08
3.91874e-05
1.14066e-08
3.91886e-05
1.10388e-08
3.91895e-05
1.08373e-08
3.91901e-05
1.03313e-08
3.91904e-05
9.55104e-09
3.91906e-05
8.53629e-09
7.53796e-09
3.91906e-05
4.26535e-05
7.32682e-10
4.26534e-05
1.71495e-09
4.26528e-05
3.4035e-09
4.26521e-05
4.14749e-09
4.2652e-05
5.13521e-09
4.26515e-05
7.15385e-09
4.26504e-05
8.60468e-09
4.26498e-05
9.04486e-09
4.26506e-05
9.89215e-09
4.26518e-05
1.16676e-08
4.26522e-05
1.31319e-08
4.26523e-05
1.31081e-08
4.26524e-05
1.20202e-08
4.26531e-05
1.06592e-08
4.26542e-05
1.00055e-08
4.26552e-05
9.77374e-09
4.26559e-05
9.68339e-09
4.26562e-05
9.21255e-09
4.26564e-05
8.39701e-09
7.44496e-09
4.26564e-05
4.64241e-05
9.53872e-10
4.64239e-05
1.9277e-09
4.64236e-05
3.70707e-09
4.64228e-05
4.90599e-09
4.64225e-05
5.46003e-09
4.64226e-05
7.02627e-09
4.64222e-05
8.99512e-09
4.64216e-05
9.73182e-09
4.64218e-05
9.68727e-09
4.64229e-05
1.0489e-08
4.64243e-05
1.17956e-08
4.64249e-05
1.24803e-08
4.64251e-05
1.18189e-08
4.64253e-05
1.04696e-08
4.6426e-05
9.25615e-09
4.6427e-05
8.80618e-09
4.6428e-05
8.71891e-09
4.64286e-05
8.62634e-09
4.64288e-05
8.14212e-09
7.36572e-09
4.64289e-05
5.0528e-05
1.06729e-09
5.05277e-05
2.27507e-09
5.05276e-05
3.7989e-09
5.05271e-05
5.37585e-09
5.05266e-05
5.9627e-09
5.05268e-05
6.89796e-09
5.05271e-05
8.64893e-09
5.0527e-05
9.81146e-09
5.05269e-05
9.81395e-09
5.05277e-05
9.67742e-09
5.05291e-05
1.04025e-08
5.05304e-05
1.12155e-08
5.0531e-05
1.12326e-08
5.05312e-05
1.02357e-08
5.05314e-05
9.0043e-09
5.05321e-05
8.10466e-09
5.0533e-05
7.85691e-09
5.05338e-05
7.78896e-09
5.05343e-05
7.64733e-09
7.15082e-09
5.05346e-05
5.49947e-05
1.08804e-09
5.49944e-05
2.62361e-09
5.49943e-05
3.85775e-09
5.49942e-05
5.46801e-09
5.49939e-05
6.29607e-09
5.4994e-05
6.83224e-09
5.49946e-05
8.05435e-09
5.4995e-05
9.357e-09
5.49952e-05
9.63892e-09
5.49956e-05
9.30435e-09
5.49967e-05
9.31476e-09
5.49981e-05
9.82624e-09
5.49991e-05
1.01423e-08
5.49997e-05
9.68994e-09
5.5e-05
8.7147e-09
5.50003e-05
7.7412e-09
5.5001e-05
7.1575e-09
5.50018e-05
6.99362e-09
5.50026e-05
6.89408e-09
6.67068e-09
5.50031e-05
5.98562e-05
1.06326e-09
5.98561e-05
2.81418e-09
5.9856e-05
3.90931e-09
5.98562e-05
5.29547e-09
5.98562e-05
6.29704e-09
5.98562e-05
6.76537e-09
5.98568e-05
7.49455e-09
5.98576e-05
8.51785e-09
5.98582e-05
9.03116e-09
5.98587e-05
8.85961e-09
5.98595e-05
8.54869e-09
5.98606e-05
8.64072e-09
5.98619e-05
8.87684e-09
5.98628e-05
8.78988e-09
5.98633e-05
8.17898e-09
5.98637e-05
7.3761e-09
5.98642e-05
6.69786e-09
5.98648e-05
6.33106e-09
5.98656e-05
6.16702e-09
5.99687e-09
5.98662e-05
6.51475e-05
1.01022e-09
6.51475e-05
2.81649e-09
6.51475e-05
3.88657e-09
6.51478e-05
4.97834e-09
6.51481e-05
5.96398e-09
6.51484e-05
6.47606e-09
6.5149e-05
6.91547e-09
6.51499e-05
7.6029e-09
6.51508e-05
8.13256e-09
6.51515e-05
8.14259e-09
6.51522e-05
7.86714e-09
6.51532e-05
7.67386e-09
6.51543e-05
7.72106e-09
6.51554e-05
7.68842e-09
6.51562e-05
7.38187e-09
6.51568e-05
6.80342e-09
6.51573e-05
6.21202e-09
6.51579e-05
5.75204e-09
6.51585e-05
5.49269e-09
5.30573e-09
6.51592e-05
7.09064e-05
9.38834e-10
7.09066e-05
2.64541e-09
7.09068e-05
3.68549e-09
7.09072e-05
4.54025e-09
7.09078e-05
5.38782e-09
7.09083e-05
5.92394e-09
7.0909e-05
6.2656e-09
7.09099e-05
6.67776e-09
7.0911e-05
7.0708e-09
7.09119e-05
7.17884e-09
7.09128e-05
7.01515e-09
7.09137e-05
6.77318e-09
7.09148e-05
6.65691e-09
7.09159e-05
6.58415e-09
7.09169e-05
6.40028e-09
7.09176e-05
6.04075e-09
7.09182e-05
5.582e-09
7.09188e-05
5.16296e-09
7.09195e-05
4.83722e-09
4.6123e-09
7.09202e-05
7.71744e-05
8.34601e-10
7.71748e-05
2.3294e-09
7.71752e-05
3.28905e-09
7.71757e-05
3.97215e-09
7.71765e-05
4.62712e-09
7.71773e-05
5.13128e-09
7.71781e-05
5.43036e-09
7.71791e-05
5.68075e-09
7.71803e-05
5.93128e-09
7.71814e-05
6.06056e-09
7.71824e-05
5.99288e-09
7.71834e-05
5.80217e-09
7.71844e-05
5.62043e-09
7.71855e-05
5.47575e-09
7.71866e-05
5.31496e-09
7.71876e-05
5.08711e-09
7.71883e-05
4.78739e-09
7.7189e-05
4.46547e-09
7.71897e-05
4.17167e-09
3.92724e-09
7.71904e-05
8.39966e-05
6.88588e-10
8.3997e-05
1.89038e-09
8.39976e-05
2.69829e-09
8.39983e-05
3.24084e-09
8.39993e-05
3.71662e-09
8.40003e-05
4.12502e-09
8.40013e-05
4.40018e-09
8.40024e-05
4.5788e-09
8.40036e-05
4.72441e-09
8.40048e-05
4.81467e-09
8.4006e-05
4.79982e-09
8.40072e-05
4.68557e-09
8.40082e-05
4.52664e-09
8.40094e-05
4.3693e-09
8.40105e-05
4.21443e-09
8.40115e-05
4.04041e-09
8.40125e-05
3.83068e-09
8.40133e-05
3.59793e-09
8.40141e-05
3.36592e-09
3.15343e-09
8.40149e-05
9.14218e-05
5.12356e-10
9.14223e-05
1.36169e-09
9.1423e-05
1.94206e-09
9.14239e-05
2.33966e-09
9.1425e-05
2.67186e-09
9.14262e-05
2.96421e-09
9.14274e-05
3.18165e-09
9.14286e-05
3.32069e-09
9.14299e-05
3.4108e-09
9.14313e-05
3.46184e-09
9.14326e-05
3.45899e-09
9.14339e-05
3.39694e-09
9.14352e-05
3.29314e-09
9.14364e-05
3.17443e-09
9.14375e-05
3.05315e-09
9.14386e-05
2.92698e-09
9.14397e-05
2.78837e-09
9.14406e-05
2.63678e-09
9.14415e-05
2.47897e-09
2.32457e-09
9.14423e-05
9.95034e-05
9.95041e-05
9.9505e-05
9.95061e-05
9.95073e-05
9.95087e-05
9.95101e-05
9.95115e-05
9.9513e-05
9.95145e-05
9.9516e-05
9.95174e-05
9.95188e-05
9.95201e-05
9.95214e-05
9.95226e-05
9.95238e-05
9.95249e-05
9.95259e-05
9.95269e-05
1.98465e-05
8.42128e-09
1.98377e-05
8.86355e-09
1.98274e-05
1.02587e-08
1.98153e-05
1.21021e-08
1.98014e-05
1.39045e-08
1.97858e-05
1.56068e-08
1.97686e-05
1.71943e-08
1.97501e-05
1.85201e-08
1.97308e-05
1.92756e-08
1.97117e-05
1.9137e-08
1.96928e-05
1.88369e-08
1.96739e-05
1.89669e-08
1.96547e-05
1.92107e-08
1.96351e-05
1.9567e-08
1.96151e-05
1.99744e-08
1.95947e-05
2.03703e-08
1.9574e-05
2.07738e-08
1.95527e-05
2.12183e-08
1.95311e-05
2.1648e-08
1.95092e-05
2.19352e-08
1.94871e-05
2.20387e-08
1.94651e-05
2.20016e-08
1.94432e-05
2.18774e-08
1.94215e-05
2.17047e-08
1.94001e-05
2.1479e-08
1.93789e-05
2.12047e-08
1.93579e-05
2.09464e-08
1.93372e-05
2.07531e-08
1.93166e-05
2.06069e-08
1.92961e-05
2.04884e-08
1.92756e-05
2.04485e-08
1.9255e-05
2.0569e-08
1.92342e-05
2.08532e-08
1.92129e-05
2.1253e-08
1.91912e-05
2.17526e-08
1.91688e-05
2.23463e-08
1.91458e-05
2.30168e-08
1.91221e-05
2.3727e-08
1.90977e-05
2.43905e-08
1.90728e-05
2.49199e-08
1.90475e-05
2.52925e-08
1.9022e-05
2.55243e-08
1.89964e-05
2.56163e-08
1.89708e-05
2.55492e-08
1.89455e-05
2.53443e-08
1.89203e-05
2.51124e-08
1.88954e-05
2.49811e-08
1.88704e-05
2.49813e-08
1.88453e-05
2.50994e-08
1.88199e-05
2.53805e-08
1.87941e-05
2.58531e-08
1.87676e-05
2.64266e-08
1.87407e-05
2.69714e-08
1.87132e-05
2.74149e-08
1.86855e-05
2.77034e-08
1.86578e-05
2.7779e-08
1.86301e-05
2.76489e-08
1.86027e-05
2.74097e-08
1.85755e-05
2.71943e-08
1.85484e-05
2.71455e-08
1.8521e-05
2.73834e-08
1.84931e-05
2.7894e-08
1.84646e-05
2.84764e-08
1.84357e-05
2.89e-08
1.84066e-05
2.91025e-08
1.83774e-05
2.91763e-08
1.83482e-05
2.92206e-08
1.83189e-05
2.92908e-08
1.82895e-05
2.94406e-08
1.82598e-05
2.97063e-08
1.82297e-05
3.00415e-08
1.81994e-05
3.03346e-08
1.81689e-05
3.05238e-08
1.81382e-05
3.06637e-08
1.81073e-05
3.0858e-08
1.80762e-05
3.11337e-08
1.80448e-05
3.14035e-08
1.80132e-05
3.15748e-08
1.79816e-05
3.1677e-08
1.79497e-05
3.18452e-08
1.79176e-05
3.2158e-08
1.7885e-05
3.25213e-08
1.78523e-05
3.27466e-08
1.78195e-05
3.276e-08
1.77868e-05
3.27137e-08
1.77539e-05
3.28637e-08
1.77206e-05
3.33074e-08
1.76868e-05
3.38473e-08
1.76527e-05
3.41303e-08
1.76187e-05
3.39384e-08
1.75853e-05
3.34047e-08
1.75524e-05
3.29609e-08
1.75193e-05
3.30429e-08
1.74855e-05
3.37681e-08
1.74508e-05
3.47826e-08
1.74154e-05
3.53871e-08
1.73805e-05
3.48603e-08
1.73477e-05
3.27758e-08
1.73186e-05
2.9156e-08
1.72942e-05
2.44154e-08
1.7275e-05
1.91771e-08
1.72609e-05
1.40694e-08
1.72513e-05
9.57572e-09
1.72453e-05
6.0251e-09
1.72419e-05
3.38163e-09
1.72403e-05
1.64888e-09
1.72397e-05
5.87473e-10
1.72397e-05
4.22094e-12
1.72399e-05
-2.36048e-10
1.72403e-05
-3.13819e-10
1.72406e-05
-2.99049e-10
1.72408e-05
-2.47902e-10
1.7241e-05
-1.8947e-10
1.72411e-05
-1.37358e-10
1.72412e-05
-9.61925e-11
1.72413e-05
-6.64505e-11
1.72413e-05
-4.48091e-11
1.72414e-05
-2.97871e-11
1.72414e-05
-1.92121e-11
1.72414e-05
-1.23531e-11
1.72414e-05
-7.25577e-12
1.72414e-05
-3.64015e-12
1.72414e-05
-1.05393e-12
1.72414e-05
7.9478e-13
1.72414e-05
2.10732e-12
1.72414e-05
3.02172e-12
1.72414e-05
3.63692e-12
1.72414e-05
4.02628e-12
1.72414e-05
4.24539e-12
1.72414e-05
4.3366e-12
1.72414e-05
4.33191e-12
1.72414e-05
4.25624e-12
1.72414e-05
4.12892e-12
1.72414e-05
3.9656e-12
1.72414e-05
3.77787e-12
1.72414e-05
3.57413e-12
1.72414e-05
3.36176e-12
1.72414e-05
3.14568e-12
1.72413e-05
2.93062e-12
1.72413e-05
2.71947e-12
1.72413e-05
2.51457e-12
1.72413e-05
2.31815e-12
1.72413e-05
2.13019e-12
1.72413e-05
1.95207e-12
1.72413e-05
1.78401e-12
1.72413e-05
1.62687e-12
1.72413e-05
1.47955e-12
1.72413e-05
1.34249e-12
1.72413e-05
1.21447e-12
1.72413e-05
1.09701e-12
1.72413e-05
9.89606e-13
1.72413e-05
8.91163e-13
1.72413e-05
8.0125e-13
1.72413e-05
7.18333e-13
1.72413e-05
6.41378e-13
1.72413e-05
5.73888e-13
1.72413e-05
5.09352e-13
1.72413e-05
4.56162e-13
1.72413e-05
4.01827e-13
1.72413e-05
3.62544e-13
1.72413e-05
3.12236e-13
1.72413e-05
2.93435e-13
1.72413e-05
2.3051e-13
1.72413e-05
2.49902e-13
1.72413e-05
1.44745e-13
1.72413e-05
2.43104e-13
1.72413e-05
3.28834e-14
1.72413e-05
3.07168e-13
1.72413e-05
-1.61301e-13
1.72413e-05
5.14773e-13
1.72413e-05
-5.35352e-13
1.72413e-05
9.93018e-13
1.72413e-05
-1.26772e-12
1.72413e-05
1.96864e-12
1.72413e-05
-2.65017e-12
1.72413e-05
3.79205e-12
1.72413e-05
-5.06756e-12
1.72413e-05
6.83857e-12
1.72413e-05
-8.83963e-12
1.72413e-05
1.12682e-11
1.72413e-05
-1.3806e-11
1.72413e-05
1.64117e-11
1.72413e-05
-1.85668e-11
1.72413e-05
1.99071e-11
1.72413e-05
-1.96716e-11
1.72413e-05
1.7257e-11
1.72413e-05
-1.19054e-11
1.72413e-05
3.3393e-12
1.72413e-05
8.46395e-12
1.72413e-05
-2.25793e-11
1.72413e-05
3.72784e-11
1.72413e-05
-4.97183e-11
1.72413e-05
5.67974e-11
1.72413e-05
-5.54091e-11
1.72413e-05
4.40866e-11
1.72413e-05
-2.34356e-11
1.72413e-05
-2.43445e-12
1.72413e-05
2.72982e-11
1.72413e-05
-4.32197e-11
1.72413e-05
4.47943e-11
1.72413e-05
-3.03661e-11
1.72413e-05
5.73817e-12
1.72413e-05
1.99777e-11
1.72413e-05
-3.46965e-11
1.72413e-05
3.33025e-11
1.72413e-05
-1.51265e-11
1.72413e-05
-8.27309e-12
1.72413e-05
2.89348e-11
1.72413e-05
-3.43416e-11
1.72413e-05
3.20336e-11
1.72413e-05
-1.79628e-11
1.72413e-05
1.54206e-11
1.72413e-05
-2.94018e-12
1.72413e-05
1.89426e-11
1.72413e-05
-7.26819e-12
1.72412e-05
6.5994e-11
1.72413e-05
-6.38638e-11
1.72411e-05
1.62204e-10
1.72412e-05
-6.21712e-11
3.09683e-10
2.16402e-05
7.14031e-09
2.16422e-05
6.92429e-09
2.16447e-05
7.72763e-09
2.16475e-05
9.26658e-09
2.16503e-05
1.11311e-08
2.16528e-05
1.30786e-08
2.1655e-05
1.50151e-08
2.16567e-05
1.68239e-08
2.16578e-05
1.82208e-08
2.1658e-05
1.89152e-08
2.16578e-05
1.89864e-08
2.1658e-05
1.88388e-08
2.16584e-05
1.88116e-08
2.16589e-05
1.89863e-08
2.16596e-05
1.92818e-08
2.16604e-05
1.96355e-08
2.16611e-05
2.0059e-08
2.16617e-05
2.05622e-08
2.16623e-05
2.11086e-08
2.16626e-05
2.15922e-08
2.16628e-05
2.18689e-08
2.16629e-05
2.19054e-08
2.1663e-05
2.17971e-08
2.1663e-05
2.16473e-08
2.1663e-05
2.14643e-08
2.1663e-05
2.12337e-08
2.16629e-05
2.10223e-08
2.16628e-05
2.09045e-08
2.16625e-05
2.0872e-08
2.16621e-05
2.08657e-08
2.16617e-05
2.08965e-08
2.16612e-05
2.10548e-08
2.16607e-05
2.137e-08
2.16602e-05
2.1793e-08
2.16596e-05
2.22877e-08
2.16591e-05
2.28386e-08
2.16587e-05
2.34447e-08
2.16583e-05
2.41041e-08
2.1658e-05
2.47487e-08
2.16576e-05
2.52704e-08
2.16573e-05
2.56282e-08
2.16569e-05
2.58581e-08
2.16566e-05
2.59839e-08
2.16561e-05
2.59846e-08
2.16556e-05
2.58622e-08
2.1655e-05
2.57113e-08
2.16543e-05
2.56684e-08
2.16535e-05
2.57787e-08
2.16526e-05
2.60013e-08
2.16517e-05
2.63392e-08
2.16507e-05
2.68212e-08
2.16498e-05
2.73803e-08
2.16488e-05
2.78946e-08
2.16479e-05
2.83026e-08
2.16471e-05
2.858e-08
2.16462e-05
2.86854e-08
2.16452e-05
2.86204e-08
2.16441e-05
2.84791e-08
2.16429e-05
2.83908e-08
2.16416e-05
2.8469e-08
2.16402e-05
2.87924e-08
2.16388e-05
2.93349e-08
2.16373e-05
2.99218e-08
2.16359e-05
3.03554e-08
2.16344e-05
3.05855e-08
2.16328e-05
3.07025e-08
2.16313e-05
3.08064e-08
2.16296e-05
3.09518e-08
2.16279e-05
3.11786e-08
2.16261e-05
3.15042e-08
2.16242e-05
3.18823e-08
2.16223e-05
3.22239e-08
2.16204e-05
3.24819e-08
2.16183e-05
3.26931e-08
2.16163e-05
3.29329e-08
2.16142e-05
3.32313e-08
2.1612e-05
3.35384e-08
2.16098e-05
3.37858e-08
2.16075e-05
3.39787e-08
2.16052e-05
3.42027e-08
2.16028e-05
3.45229e-08
2.16004e-05
3.48862e-08
2.1598e-05
3.51534e-08
2.15955e-05
3.52544e-08
2.1593e-05
3.52942e-08
2.15903e-05
3.54765e-08
2.15878e-05
3.58928e-08
2.15852e-05
3.63874e-08
2.15827e-05
3.66494e-08
2.15802e-05
3.64662e-08
2.15776e-05
3.59461e-08
2.15751e-05
3.5493e-08
2.15726e-05
3.55323e-08
2.15702e-05
3.61838e-08
2.15679e-05
3.70732e-08
2.15659e-05
3.743e-08
2.15643e-05
3.64286e-08
2.15635e-05
3.35509e-08
2.15639e-05
2.87985e-08
2.15656e-05
2.26714e-08
2.15688e-05
1.59847e-08
2.15733e-05
9.61577e-09
2.15786e-05
4.24647e-09
2.15843e-05
3.31256e-10
2.15901e-05
-2.42089e-09
2.15955e-05
-3.7587e-09
2.16002e-05
-4.16364e-09
2.16042e-05
-3.93051e-09
2.16073e-05
-3.34793e-09
2.16096e-05
-2.65484e-09
2.16113e-05
-1.98306e-09
2.16125e-05
-1.40578e-09
2.16132e-05
-9.48764e-10
2.16137e-05
-6.09141e-10
2.1614e-05
-3.69958e-10
2.16141e-05
-2.10884e-10
2.16142e-05
-1.06541e-10
2.16142e-05
-4.10977e-11
2.16142e-05
-1.34004e-12
2.16141e-05
2.04136e-11
2.16141e-05
3.30546e-11
2.16141e-05
3.92717e-11
2.1614e-05
4.16724e-11
2.1614e-05
4.18344e-11
2.16139e-05
4.07232e-11
2.16139e-05
3.89115e-11
2.16139e-05
3.67363e-11
2.16138e-05
3.43977e-11
2.16138e-05
3.2016e-11
2.16138e-05
2.96634e-11
2.16138e-05
2.73819e-11
2.16137e-05
2.51975e-11
2.16137e-05
2.31252e-11
2.16137e-05
2.11743e-11
2.16137e-05
1.93478e-11
2.16137e-05
1.76448e-11
2.16137e-05
1.60628e-11
2.16137e-05
1.45965e-11
2.16136e-05
1.32426e-11
2.16136e-05
1.19952e-11
2.16136e-05
1.08493e-11
2.16136e-05
9.79891e-12
2.16136e-05
8.83705e-12
2.16136e-05
7.9578e-12
2.16136e-05
7.15592e-12
2.16136e-05
6.42632e-12
2.16136e-05
5.76253e-12
2.16136e-05
5.16032e-12
2.16136e-05
4.61271e-12
2.16136e-05
4.11884e-12
2.16136e-05
3.67304e-12
2.16136e-05
3.27226e-12
2.16136e-05
2.91095e-12
2.16136e-05
2.58525e-12
2.16136e-05
2.29066e-12
2.16136e-05
2.02887e-12
2.16136e-05
1.79263e-12
2.16136e-05
1.58525e-12
2.16136e-05
1.39657e-12
2.16136e-05
1.23328e-12
2.16136e-05
1.07992e-12
2.16136e-05
9.58851e-13
2.16136e-05
8.23252e-13
2.16136e-05
7.50442e-13
2.16136e-05
6.09022e-13
2.16136e-05
6.04048e-13
2.16136e-05
4.14604e-13
2.16136e-05
5.36587e-13
2.16136e-05
1.89848e-13
2.16136e-05
5.95795e-13
2.16136e-05
-1.3865e-13
2.16136e-05
8.62493e-13
2.16136e-05
-7.04334e-13
2.16136e-05
1.50492e-12
2.16136e-05
-1.74475e-12
2.16136e-05
2.81879e-12
2.16136e-05
-3.60496e-12
2.16136e-05
5.1588e-12
2.16136e-05
-6.64938e-12
2.16136e-05
8.81115e-12
2.16136e-05
-1.09441e-11
2.16136e-05
1.34471e-11
2.16136e-05
-1.55504e-11
2.16136e-05
1.72312e-11
2.16136e-05
-1.75307e-11
2.16136e-05
1.6036e-11
2.16136e-05
-1.16801e-11
2.16136e-05
4.07873e-12
2.16136e-05
7.14288e-12
2.16136e-05
-2.09876e-11
2.16136e-05
3.60985e-11
2.16136e-05
-4.95194e-11
2.16136e-05
5.79119e-11
2.16136e-05
-5.74522e-11
2.16136e-05
4.61812e-11
2.16136e-05
-2.38016e-11
2.16136e-05
-5.1904e-12
2.16136e-05
3.37188e-11
2.16136e-05
-5.24006e-11
2.16136e-05
5.52519e-11
2.16136e-05
-3.92237e-11
2.16136e-05
1.11532e-11
2.16136e-05
1.87914e-11
2.16136e-05
-3.49482e-11
2.16136e-05
3.24841e-11
2.16136e-05
-9.37726e-12
2.16136e-05
-1.84064e-11
2.16136e-05
4.35749e-11
2.16136e-05
-4.82474e-11
2.16136e-05
4.65439e-11
2.16136e-05
-2.89007e-11
2.16135e-05
3.10436e-11
2.16136e-05
-1.71581e-11
2.16135e-05
4.38257e-11
2.16136e-05
-2.54752e-11
2.16135e-05
9.28292e-11
2.16135e-05
-6.95649e-11
2.16135e-05
1.87255e-10
2.16135e-05
-3.63438e-11
2.94997e-10
2.3561e-05
7.00331e-09
2.35613e-05
6.66236e-09
2.35619e-05
7.06769e-09
2.35631e-05
8.12214e-09
2.35646e-05
9.61637e-09
2.35664e-05
1.1307e-08
2.35683e-05
1.30722e-08
2.35703e-05
1.48278e-08
2.35721e-05
1.64249e-08
2.35734e-05
1.76281e-08
2.35741e-05
1.82425e-08
2.35746e-05
1.83772e-08
2.35751e-05
1.8336e-08
2.35757e-05
1.83527e-08
2.35765e-05
1.84861e-08
2.35774e-05
1.87089e-08
2.35785e-05
1.89911e-08
2.35797e-05
1.93346e-08
2.3581e-05
1.9802e-08
2.35822e-05
2.03894e-08
2.35832e-05
2.09101e-08
2.35839e-05
2.11735e-08
2.35845e-05
2.11936e-08
2.35851e-05
2.11073e-08
2.35855e-05
2.09827e-08
2.3586e-05
2.08185e-08
2.35863e-05
2.06499e-08
2.35867e-05
2.05596e-08
2.3587e-05
2.05942e-08
2.35871e-05
2.06987e-08
2.35872e-05
2.08177e-08
2.35873e-05
2.09967e-08
2.35873e-05
2.12908e-08
2.35875e-05
2.16746e-08
2.35877e-05
2.2081e-08
2.3588e-05
2.24784e-08
2.35886e-05
2.29075e-08
2.35892e-05
2.34196e-08
2.359e-05
2.39686e-08
2.35909e-05
2.44304e-08
2.35917e-05
2.47509e-08
2.35926e-05
2.49783e-08
2.35935e-05
2.51446e-08
2.35942e-05
2.52217e-08
2.35949e-05
2.51955e-08
2.35955e-05
2.51337e-08
2.3596e-05
2.51605e-08
2.35964e-05
2.53286e-08
2.35968e-05
2.55817e-08
2.35973e-05
2.58854e-08
2.35978e-05
2.62694e-08
2.35985e-05
2.67125e-08
2.35993e-05
2.7126e-08
2.36001e-05
2.74607e-08
2.3601e-05
2.77183e-08
2.36018e-05
2.78771e-08
2.36025e-05
2.79163e-08
2.36031e-05
2.7888e-08
2.36036e-05
2.78951e-08
2.3604e-05
2.80316e-08
2.36045e-05
2.83533e-08
2.3605e-05
2.88277e-08
2.36056e-05
2.93116e-08
2.36063e-05
2.96606e-08
2.3607e-05
2.98642e-08
2.36077e-05
3.0018e-08
2.36083e-05
3.01906e-08
2.36089e-05
3.03905e-08
2.36094e-05
3.06301e-08
2.361e-05
3.09347e-08
2.36106e-05
3.12834e-08
2.36112e-05
3.1605e-08
2.36118e-05
3.18553e-08
2.36124e-05
3.20664e-08
2.36131e-05
3.23079e-08
2.36137e-05
3.26042e-08
2.36143e-05
3.29054e-08
2.3615e-05
3.31454e-08
2.36156e-05
3.33284e-08
2.36163e-05
3.35339e-08
2.3617e-05
3.38265e-08
2.36177e-05
3.41639e-08
2.36184e-05
3.442e-08
2.36192e-05
3.45218e-08
2.36199e-05
3.45461e-08
2.36207e-05
3.46706e-08
2.36216e-05
3.49916e-08
2.36226e-05
3.53988e-08
2.36236e-05
3.56338e-08
2.36246e-05
3.54937e-08
2.36255e-05
3.50267e-08
2.36265e-05
3.4536e-08
2.36276e-05
3.43758e-08
2.36292e-05
3.46723e-08
2.36311e-05
3.51427e-08
2.36334e-05
3.51641e-08
2.36357e-05
3.40482e-08
2.36379e-05
3.13551e-08
2.36396e-05
2.70827e-08
2.36407e-05
2.16518e-08
2.36409e-05
1.57402e-08
2.36405e-05
1.00551e-08
2.36395e-05
5.16395e-09
2.36385e-05
1.41906e-09
2.36371e-05
-1.01686e-09
2.36357e-05
-2.35139e-09
2.36344e-05
-2.88409e-09
2.36333e-05
-2.83402e-09
2.36324e-05
-2.45499e-09
2.36317e-05
-1.94887e-09
2.36311e-05
-1.43678e-09
2.36307e-05
-9.86673e-10
2.36304e-05
-6.25514e-10
2.36301e-05
-3.55498e-10
2.36299e-05
-1.65211e-10
2.36298e-05
-4.34696e-11
2.36296e-05
3.73473e-11
2.36295e-05
8.37881e-11
2.36294e-05
1.0852e-10
2.36293e-05
1.18947e-10
2.36292e-05
1.21589e-10
2.36291e-05
1.19405e-10
2.3629e-05
1.14473e-10
2.3629e-05
1.08079e-10
2.36289e-05
1.01008e-10
2.36289e-05
9.37338e-11
2.36288e-05
8.65381e-11
2.36288e-05
7.9586e-11
2.36287e-05
7.29703e-11
2.36287e-05
6.6739e-11
2.36287e-05
6.091e-11
2.36286e-05
5.54869e-11
2.36286e-05
5.04617e-11
2.36286e-05
4.58224e-11
2.36286e-05
4.15519e-11
2.36285e-05
3.76294e-11
2.36285e-05
3.40337e-11
2.36285e-05
3.07413e-11
2.36285e-05
2.77331e-11
2.36285e-05
2.49883e-11
2.36285e-05
2.24891e-11
2.36284e-05
2.02161e-11
2.36284e-05
1.81511e-11
2.36284e-05
1.62768e-11
2.36284e-05
1.45784e-11
2.36284e-05
1.3042e-11
2.36284e-05
1.16527e-11
2.36284e-05
1.03993e-11
2.36284e-05
9.26662e-12
2.36284e-05
8.24876e-12
2.36284e-05
7.33314e-12
2.36284e-05
6.51345e-12
2.36284e-05
5.7772e-12
2.36284e-05
5.11741e-12
2.36284e-05
4.52424e-12
2.36284e-05
3.99634e-12
2.36284e-05
3.5248e-12
2.36284e-05
3.10751e-12
2.36284e-05
2.7338e-12
2.36284e-05
2.40493e-12
2.36284e-05
2.10604e-12
2.36284e-05
1.85523e-12
2.36284e-05
1.60868e-12
2.36284e-05
1.43113e-12
2.36284e-05
1.21016e-12
2.36284e-05
1.11518e-12
2.36284e-05
8.76011e-13
2.36284e-05
9.10698e-13
2.36284e-05
5.57675e-13
2.36284e-05
8.3748e-13
2.36284e-05
2.01381e-13
2.36284e-05
9.47444e-13
2.36284e-05
-3.14525e-13
2.36284e-05
1.37163e-12
2.36284e-05
-1.17608e-12
2.36284e-05
2.32353e-12
2.36284e-05
-2.62729e-12
2.36284e-05
4.02746e-12
2.36284e-05
-4.90122e-12
2.36284e-05
6.62958e-12
2.36284e-05
-7.93802e-12
2.36284e-05
9.72308e-12
2.36284e-05
-1.08345e-11
2.36284e-05
1.16788e-11
2.36284e-05
-1.1101e-11
2.36284e-05
9.10762e-12
2.36284e-05
-4.71211e-12
2.36284e-05
-1.91162e-12
2.36284e-05
1.13101e-11
2.36284e-05
-2.23239e-11
2.36284e-05
3.3712e-11
2.36284e-05
-4.26658e-11
2.36284e-05
4.67054e-11
2.36284e-05
-4.26896e-11
2.36284e-05
2.97899e-11
2.36284e-05
-8.4467e-12
2.36284e-05
-1.66049e-11
2.36284e-05
3.98248e-11
2.36284e-05
-5.27745e-11
2.36284e-05
5.142e-11
2.36284e-05
-3.39083e-11
2.36284e-05
8.73669e-12
2.36284e-05
1.59444e-11
2.36284e-05
-2.57866e-11
2.36284e-05
1.94153e-11
2.36284e-05
5.78501e-12
2.36284e-05
-3.13429e-11
2.36284e-05
5.44824e-11
2.36284e-05
-5.49452e-11
2.36284e-05
5.36584e-11
2.36284e-05
-3.39828e-11
2.36284e-05
4.08162e-11
2.36284e-05
-2.46135e-11
2.36283e-05
5.80513e-11
2.36284e-05
-3.15225e-11
2.36283e-05
1.00981e-10
2.36283e-05
-5.10694e-11
2.36283e-05
1.6689e-10
2.36283e-05
8.62029e-12
2.54916e-10
2.56481e-05
6.58547e-09
2.56485e-05
6.33602e-09
2.56489e-05
6.6655e-09
2.56495e-05
7.52369e-09
2.56503e-05
8.74731e-09
2.56515e-05
1.01623e-08
2.56529e-05
1.16552e-08
2.56545e-05
1.31789e-08
2.56562e-05
1.47188e-08
2.56578e-05
1.60818e-08
2.56591e-05
1.69807e-08
2.566e-05
1.74485e-08
2.56607e-05
1.76368e-08
2.56613e-05
1.77184e-08
2.5662e-05
1.78458e-08
2.56626e-05
1.80584e-08
2.56633e-05
1.82756e-08
2.56642e-05
1.84457e-08
2.56653e-05
1.86929e-08
2.56665e-05
1.91768e-08
2.56676e-05
1.98014e-08
2.56685e-05
2.02899e-08
2.56692e-05
2.05034e-08
2.56698e-05
2.05239e-08
2.56703e-05
2.04738e-08
2.56707e-05
2.03825e-08
2.56712e-05
2.02385e-08
2.56716e-05
2.01128e-08
2.56721e-05
2.01252e-08
2.56725e-05
2.0278e-08
2.56728e-05
2.04764e-08
2.56731e-05
2.06976e-08
2.56734e-05
2.10004e-08
2.56737e-05
2.13873e-08
2.5674e-05
2.17592e-08
2.56745e-05
2.20491e-08
2.5675e-05
2.23302e-08
2.56757e-05
2.27213e-08
2.56765e-05
2.32042e-08
2.56773e-05
2.36304e-08
2.56781e-05
2.39281e-08
2.56789e-05
2.4153e-08
2.56798e-05
2.43437e-08
2.56805e-05
2.44713e-08
2.56812e-05
2.4502e-08
2.56818e-05
2.4483e-08
2.56825e-05
2.45456e-08
2.5683e-05
2.47539e-08
2.56836e-05
2.50304e-08
2.56842e-05
2.53031e-08
2.56848e-05
2.56047e-08
2.56856e-05
2.59559e-08
2.56864e-05
2.62926e-08
2.56873e-05
2.65746e-08
2.56882e-05
2.68268e-08
2.5689e-05
2.70427e-08
2.56898e-05
2.71778e-08
2.56904e-05
2.72445e-08
2.5691e-05
2.73226e-08
2.56915e-05
2.74858e-08
2.56921e-05
2.7762e-08
2.56928e-05
2.81268e-08
2.56936e-05
2.85027e-08
2.56945e-05
2.88103e-08
2.56953e-05
2.90461e-08
2.56961e-05
2.92641e-08
2.56968e-05
2.9491e-08
2.56974e-05
2.97142e-08
2.56981e-05
2.99409e-08
2.56989e-05
3.02041e-08
2.56996e-05
3.05038e-08
2.57004e-05
3.07989e-08
2.57012e-05
3.10598e-08
2.5702e-05
3.12995e-08
2.57028e-05
3.15452e-08
2.57036e-05
3.18019e-08
2.57044e-05
3.20541e-08
2.57053e-05
3.22869e-08
2.57061e-05
3.25044e-08
2.57069e-05
3.27256e-08
2.57078e-05
3.2959e-08
2.57088e-05
3.31867e-08
2.57098e-05
3.33741e-08
2.57108e-05
3.35086e-08
2.57117e-05
3.36243e-08
2.57126e-05
3.37731e-08
2.57137e-05
3.39647e-08
2.57149e-05
3.41323e-08
2.57164e-05
3.41681e-08
2.57179e-05
3.4012e-08
2.57192e-05
3.37192e-08
2.57203e-05
3.34363e-08
2.57214e-05
3.32969e-08
2.57227e-05
3.32855e-08
2.57247e-05
3.31747e-08
2.57273e-05
3.25847e-08
2.57302e-05
3.11282e-08
2.5733e-05
2.85738e-08
2.57351e-05
2.49365e-08
2.57363e-05
2.04929e-08
2.57363e-05
1.56984e-08
2.57353e-05
1.10485e-08
2.57335e-05
6.96952e-09
2.57313e-05
3.70661e-09
2.57289e-05
1.30548e-09
2.57268e-05
-2.55853e-10
2.57251e-05
-1.16229e-09
2.57238e-05
-1.48908e-09
2.57228e-05
-1.46302e-09
2.57221e-05
-1.24853e-09
2.57216e-05
-9.56686e-10
2.57213e-05
-6.60809e-10
2.5721e-05
-3.99151e-10
2.57209e-05
-1.86799e-10
2.57207e-05
-2.59969e-11
2.57206e-05
7.41404e-11
2.57205e-05
1.43648e-10
2.57204e-05
1.85535e-10
2.57203e-05
2.06778e-10
2.57202e-05
2.1361e-10
2.57201e-05
2.11409e-10
2.572e-05
2.0363e-10
2.572e-05
1.92681e-10
2.57199e-05
1.80157e-10
2.57198e-05
1.67068e-10
2.57198e-05
1.54031e-10
2.57197e-05
1.41409e-10
2.57197e-05
1.29408e-10
2.57196e-05
1.18128e-10
2.57196e-05
1.07611e-10
2.57195e-05
9.78595e-11
2.57195e-05
8.88543e-11
2.57195e-05
8.05649e-11
2.57195e-05
7.29552e-11
2.57194e-05
6.59857e-11
2.57194e-05
5.96136e-11
2.57194e-05
5.37966e-11
2.57194e-05
4.84911e-11
2.57194e-05
4.36601e-11
2.57193e-05
3.92663e-11
2.57193e-05
3.52767e-11
2.57193e-05
3.1658e-11
2.57193e-05
2.83791e-11
2.57193e-05
2.54105e-11
2.57193e-05
2.27262e-11
2.57193e-05
2.03029e-11
2.57193e-05
1.8116e-11
2.57193e-05
1.61469e-11
2.57193e-05
1.43718e-11
2.57193e-05
1.27785e-11
2.57193e-05
1.13471e-11
2.57192e-05
1.00671e-11
2.57192e-05
8.91921e-12
2.57192e-05
7.89264e-12
2.57192e-05
6.97214e-12
2.57192e-05
6.1525e-12
2.57192e-05
5.4225e-12
2.57192e-05
4.77536e-12
2.57192e-05
4.19829e-12
2.57192e-05
3.68835e-12
2.57192e-05
3.22982e-12
2.57192e-05
2.83656e-12
2.57192e-05
2.46842e-12
2.57192e-05
2.17711e-12
2.57192e-05
1.86619e-12
2.57192e-05
1.6778e-12
2.57192e-05
1.37601e-12
2.57192e-05
1.32698e-12