/*--------------------------------*- C++ -*----------------------------------*\
| =========                 |                                                 |
| \\      /  F ield         | OpenFOAM: The Open Source CFD Toolbox           |
|  \\    /   O peration     | Version:  v1906                                 |
|   \\  /    A nd           | Web:      www.OpenFOAM.com                      |
|    \\/     M anipulation  |                                                 |
\*---------------------------------------------------------------------------*/
FoamFile
{
    version     2.0;
    format      ascii;
    class       volVectorField;
    location    "0.3";
    object      U;
}
// * * * * * * * * * * * * * * * * * * * * * * * * * * * * * * * * * * * * * //

dimensions      [0 1 -1 0 0 0 0];


internalField   nonuniform List<vector> 
4800
(
(0.997593 -1.72484e-06 0)
(1.00221 -3.01116e-05 0)
(0.997917 6.55964e-06 0)
(1.00183 2.51015e-05 0)
(0.998183 1.49989e-05 0)
(1.00147 -7.51083e-06 0)
(0.99835 -1.71902e-05 0)
(1.00117 -1.3447e-05 0)
(0.998539 -9.96272e-06 0)
(1.00086 1.87549e-05 0)
(0.998599 5.14326e-05 0)
(1.00061 8.33095e-05 0)
(0.998755 0.000136481 0)
(1.00053 0.000188847 0)
(0.999 0.000273555 0)
(1.00055 0.00034533 0)
(0.999356 0.000403629 0)
(1.00081 0.000425589 0)
(0.999886 0.000412592 0)
(1.00104 0.000381653 0)
(0.999945 -3.74144e-06 0)
(1.00003 -3.04195e-05 0)
(0.999929 -3.61167e-08 0)
(0.999985 2.97043e-05 0)
(0.999908 3.16824e-05 0)
(0.999912 6.29601e-06 0)
(0.999805 -1.94975e-06 0)
(0.999805 -1.60388e-06 0)
(0.999737 5.64915e-06 0)
(0.999689 4.85174e-05 0)
(0.99963 0.000103355 0)
(0.999663 0.000173188 0)
(0.999718 0.000289015 0)
(0.999838 0.000400427 0)
(0.999941 0.000537412 0)
(1.00005 0.000640718 0)
(1.00018 0.000703216 0)
(1.00034 0.000702288 0)
(1.0005 0.000650408 0)
(1.00057 0.00057475 0)
(1 -7.93932e-06 0)
(0.999989 3.95452e-06 0)
(0.999972 -1.17798e-05 0)
(0.999963 7.76356e-06 0)
(0.999942 3.40647e-05 0)
(0.999892 2.45911e-05 0)
(0.999828 1.56247e-05 0)
(0.999792 2.01953e-05 0)
(0.99976 3.9592e-05 0)
(0.999698 9.27166e-05 0)
(0.999673 0.000171988 0)
(0.999718 0.000261524 0)
(0.999805 0.000375709 0)
(0.999916 0.000475702 0)
(1.00001 0.000545815 0)
(1.00009 0.000580618 0)
(1.00017 0.000573225 0)
(1.00029 0.00053061 0)
(1.00042 0.000463375 0)
(1.00049 0.000389158 0)
(1 -4.92859e-06 0)
(0.999987 4.63473e-06 0)
(0.99997 3.64317e-07 0)
(0.999969 -6.01093e-06 0)
(0.999945 2.59462e-05 0)
(0.999886 3.93706e-05 0)
(0.999827 4.21321e-05 0)
(0.999801 5.42578e-05 0)
(0.999784 7.88681e-05 0)
(0.999745 0.000143796 0)
(0.999732 0.000239865 0)
(0.999779 0.000323395 0)
(0.999865 0.000411222 0)
(0.999957 0.00048551 0)
(1.00003 0.000527139 0)
(1.00008 0.000543738 0)
(1.00014 0.000540176 0)
(1.00024 0.000515673 0)
(1.00036 0.000473015 0)
(1.00043 0.000421583 0)
(1 1.00299e-06 0)
(0.999989 -2.50951e-06 0)
(0.999966 2.19857e-05 0)
(0.999969 4.75046e-06 0)
(0.999957 5.62617e-06 0)
(0.999897 4.29937e-05 0)
(0.999833 7.76085e-05 0)
(0.999807 0.000101158 0)
(0.999803 0.00012682 0)
(0.999784 0.000181092 0)
(0.999777 0.000262454 0)
(0.999826 0.000337882 0)
(0.999916 0.000410428 0)
(1 0.000472333 0)
(1.00006 0.000512918 0)
(1.0001 0.000531601 0)
(1.00014 0.000531534 0)
(1.00021 0.000508409 0)
(1.00031 0.000467356 0)
(1.00037 0.000416913 0)
(1 3.0977e-06 0)
(0.999993 -1.56924e-06 0)
(0.999971 2.28273e-05 0)
(0.999961 2.86113e-05 0)
(0.999958 9.99323e-06 0)
(0.999916 3.25139e-05 0)
(0.999853 8.77641e-05 0)
(0.999825 0.000137812 0)
(0.999827 0.000176301 0)
(0.999824 0.000217574 0)
(0.99983 0.000281729 0)
(0.99988 0.000349751 0)
(0.999964 0.000410203 0)
(1.00004 0.000462467 0)
(1.00008 0.000499227 0)
(1.00009 0.000511032 0)
(1.00011 0.000498826 0)
(1.00016 0.000468794 0)
(1.00023 0.000428403 0)
(1.0003 0.000387103 0)
(1 2.96185e-06 0)
(0.999994 6.92726e-06 0)
(0.999976 1.54125e-05 0)
(0.999963 3.83826e-05 0)
(0.999959 4.1397e-05 0)
(0.999933 4.17922e-05 0)
(0.999886 8.77244e-05 0)
(0.999855 0.000157165 0)
(0.99985 0.000215281 0)
(0.999851 0.00025668 0)
(0.999867 0.000297518 0)
(0.999922 0.000340889 0)
(1.00001 0.000384496 0)
(1.00008 0.000427479 0)
(1.0001 0.000461428 0)
(1.00009 0.000473758 0)
(1.00008 0.000463596 0)
(1.00012 0.000438414 0)
(1.00019 0.000407952 0)
(1.00026 0.000380678 0)
(1 2.47468e-06 0)
(0.999995 1.38327e-05 0)
(0.999981 2.08482e-05 0)
(0.99997 3.92207e-05 0)
(0.999958 6.13361e-05 0)
(0.999939 6.97737e-05 0)
(0.999916 9.21119e-05 0)
(0.999902 0.000151783 0)
(0.999892 0.000224959 0)
(0.999883 0.000283766 0)
(0.999895 0.000319587 0)
(0.999953 0.00034118 0)
(1.00004 0.000361653 0)
(1.00011 0.000388577 0)
(1.00013 0.000417051 0)
(1.00009 0.000437963 0)
(1.00006 0.000441884 0)
(1.00007 0.000427173 0)
(1.00014 0.000402141 0)
(1.00022 0.000376543 0)
(1 3.42141e-06 0)
(0.999995 1.72023e-05 0)
(0.999981 2.99504e-05 0)
(0.999977 4.00748e-05 0)
(0.99997 6.75114e-05 0)
(0.999947 9.78322e-05 0)
(0.999933 0.000117989 0)
(0.99994 0.000150857 0)
(0.999942 0.000212269 0)
(0.999922 0.000280798 0)
(0.999914 0.000328204 0)
(0.999959 0.000344617 0)
(1.00005 0.000343708 0)
(1.00014 0.00034895 0)
(1.00016 0.000370302 0)
(1.00012 0.000399034 0)
(1.00007 0.000419551 0)
(1.00006 0.00042079 0)
(1.0001 0.000403775 0)
(1.00018 0.000379653 0)
(0.999999 5.95256e-06 0)
(0.999997 1.76196e-05 0)
(0.999982 3.90005e-05 0)
(0.99998 4.95767e-05 0)
(0.999982 6.84844e-05 0)
(0.999961 0.00010658 0)
(0.999944 0.000141035 0)
(0.999962 0.000162024 0)
(0.999987 0.000197331 0)
(0.999976 0.000257156 0)
(0.99995 0.000316302 0)
(0.999965 0.000347527 0)
(1.00005 0.000345055 0)
(1.00014 0.000333601 0)
(1.00019 0.000336928 0)
(1.00016 0.000358864 0)
(1.00009 0.000386368 0)
(1.00005 0.000401743 0)
(1.00007 0.000398597 0)
(1.00013 0.000381195 0)
(0.999999 9.03522e-06 0)
(0.999999 1.89223e-05 0)
(0.999985 4.2377e-05 0)
(0.999982 6.05837e-05 0)
(0.999993 7.37294e-05 0)
(0.999983 0.000106468 0)
(0.999961 0.000150654 0)
(0.999972 0.000178359 0)
(1.00001 0.000194918 0)
(1.00002 0.000231619 0)
(0.999996 0.000284886 0)
(0.999983 0.000328716 0)
(1.00003 0.000340719 0)
(1.00012 0.000327382 0)
(1.00019 0.000315213 0)
(1.0002 0.000321809 0)
(1.00014 0.000346766 0)
(1.00007 0.000372753 0)
(1.00006 0.000386165 0)
(1.0001 0.000382037 0)
(0.999998 1.03827e-05 0)
(1 2.2457e-05 0)
(0.999993 4.41352e-05 0)
(0.999986 6.89727e-05 0)
(0.999999 8.22113e-05 0)
(1 0.000104357 0)
(0.999984 0.000145315 0)
(0.999984 0.000182588 0)
(1.00002 0.000199047 0)
(1.00005 0.000216256 0)
(1.00004 0.000253075 0)
(1.00002 0.00029665 0)
(1.00003 0.000324006 0)
(1.0001 0.000322527 0)
(1.00017 0.000308312 0)
(1.00021 0.000301825 0)
(1.00018 0.000313944 0)
(1.00012 0.000337831 0)
(1.00008 0.000359648 0)
(1.00009 0.00036831 0)
(0.999999 1.08493e-05 0)
(1 2.71741e-05 0)
(0.999999 4.46464e-05 0)
(0.999993 7.0355e-05 0)
(1 8.88177e-05 0)
(1.00002 0.000105652 0)
(1.00001 0.00013715 0)
(1 0.000175199 0)
(1.00003 0.000198095 0)
(1.00006 0.000208984 0)
(1.00007 0.000228261 0)
(1.00006 0.000261092 0)
(1.00005 0.000291752 0)
(1.00009 0.000304427 0)
(1.00015 0.000298996 0)
(1.0002 0.000289533 0)
(1.0002 0.000290924 0)
(1.00016 0.000305313 0)
(1.00012 0.000326366 0)
(1.00011 0.000342585 0)
(0.999999 1.069e-05 0)
(1 2.99324e-05 0)
(1 4.58437e-05 0)
(1 6.9465e-05 0)
(1.00001 9.093e-05 0)
(1.00002 0.000106411 0)
(1.00003 0.000128498 0)
(1.00002 0.000160185 0)
(1.00004 0.000186958 0)
(1.00007 0.000200375 0)
(1.00009 0.000211727 0)
(1.00009 0.000231654 0)
(1.00008 0.000257986 0)
(1.00009 0.000276628 0)
(1.00013 0.000282052 0)
(1.00018 0.000277592 0)
(1.0002 0.000275015 0)
(1.00019 0.000281024 0)
(1.00016 0.000294949 0)
(1.00014 0.000310853 0)
(1 1.02183e-05 0)
(1 3.10214e-05 0)
(1.00001 4.66396e-05 0)
(1.00001 6.60187e-05 0)
(1.00002 8.70309e-05 0)
(1.00003 0.000103579 0)
(1.00004 0.000121012 0)
(1.00004 0.000145104 0)
(1.00005 0.00016987 0)
(1.00007 0.000186094 0)
(1.0001 0.000196262 0)
(1.00011 0.000208338 0)
(1.00011 0.000226308 0)
(1.00011 0.000244133 0)
(1.00013 0.000254768 0)
(1.00016 0.000257398 0)
(1.00019 0.000256709 0)
(1.0002 0.000259179 0)
(1.00019 0.000267132 0)
(1.00017 0.000278812 0)
(1 9.66524e-06 0)
(1 2.98873e-05 0)
(1.00001 4.52724e-05 0)
(1.00002 6.14377e-05 0)
(1.00002 8.01933e-05 0)
(1.00004 9.67143e-05 0)
(1.00005 0.000111626 0)
(1.00006 0.000129486 0)
(1.00007 0.000149481 0)
(1.00008 0.00016595 0)
(1.0001 0.000177055 0)
(1.00012 0.000186575 0)
(1.00012 0.000198534 0)
(1.00013 0.000212408 0)
(1.00014 0.000223889 0)
(1.00016 0.000230458 0)
(1.00019 0.000233203 0)
(1.0002 0.000235589 0)
(1.0002 0.000240349 0)
(1.0002 0.000247963 0)
(1 8.81571e-06 0)
(1 2.70958e-05 0)
(1.00001 4.17062e-05 0)
(1.00002 5.52009e-05 0)
(1.00003 7.04275e-05 0)
(1.00004 8.52659e-05 0)
(1.00006 9.85477e-05 0)
(1.00007 0.000112553 0)
(1.00008 0.000128178 0)
(1.00009 0.000142624 0)
(1.00011 0.00015365 0)
(1.00012 0.000162233 0)
(1.00014 0.000171041 0)
(1.00014 0.000181013 0)
(1.00015 0.000190722 0)
(1.00017 0.000198159 0)
(1.00019 0.000202847 0)
(1.0002 0.000206204 0)
(1.00021 0.000209908 0)
(1.00021 0.000215046 0)
(1 7.67114e-06 0)
(1 2.30689e-05 0)
(1.00001 3.57295e-05 0)
(1.00002 4.66821e-05 0)
(1.00003 5.84114e-05 0)
(1.00005 7.05168e-05 0)
(1.00006 8.16685e-05 0)
(1.00007 9.24231e-05 0)
(1.00009 0.000103868 0)
(1.0001 0.000115069 0)
(1.00011 0.000124534 0)
(1.00013 0.000132081 0)
(1.00014 0.000138834 0)
(1.00015 0.000145909 0)
(1.00016 0.000153106 0)
(1.00018 0.000159539 0)
(1.00019 0.000164395 0)
(1.0002 0.000167967 0)
(1.00021 0.000171074 0)
(1.00022 0.000174576 0)
(1 6.34316e-06 0)
(1 1.89307e-05 0)
(1.00001 2.95876e-05 0)
(1.00002 3.88443e-05 0)
(1.00004 4.83352e-05 0)
(1.00005 5.83624e-05 0)
(1.00006 6.80894e-05 0)
(1.00008 7.73062e-05 0)
(1.00009 8.64872e-05 0)
(1.0001 9.55833e-05 0)
(1.00012 0.00010389 0)
(1.00013 0.000110952 0)
(1.00015 0.000117044 0)
(1.00016 0.000122842 0)
(1.00017 0.000128576 0)
(1.00018 0.000134003 0)
(1.00019 0.000138693 0)
(1.00021 0.000142541 0)
(1.00022 0.000145789 0)
(1.00023 0.000148865 0)
(1 2.83282e-06 0)
(1.00001 8.53075e-06 0)
(1.00001 1.34786e-05 0)
(1.00003 1.78985e-05 0)
(1.00004 2.23984e-05 0)
(1.00005 2.72058e-05 0)
(1.00007 3.20562e-05 0)
(1.00008 3.67059e-05 0)
(1.0001 4.11987e-05 0)
(1.00011 4.5583e-05 0)
(1.00013 4.96895e-05 0)
(1.00014 5.33411e-05 0)
(1.00015 5.6546e-05 0)
(1.00017 5.94879e-05 0)
(1.00018 6.23026e-05 0)
(1.00019 6.4996e-05 0)
(1.0002 6.74716e-05 0)
(1.00021 6.96551e-05 0)
(1.00023 7.15634e-05 0)
(1.00023 7.32885e-05 0)
(0.999947 0.000353501 0)
(0.998679 0.000361148 0)
(0.997357 0.000412223 0)
(0.996141 0.000486518 0)
(0.995077 0.000559329 0)
(0.994142 0.000626646 0)
(0.993288 0.000688601 0)
(0.992475 0.00074362 0)
(0.991679 0.000782999 0)
(0.990878 0.000799838 0)
(0.990048 0.000801778 0)
(0.989178 0.000798956 0)
(0.988267 0.00080089 0)
(0.987317 0.000811093 0)
(0.986313 0.000825414 0)
(0.985247 0.000839069 0)
(0.984141 0.000850874 0)
(0.98303 0.000863327 0)
(0.981933 0.000876137 0)
(0.980844 0.000883405 0)
(0.97975 0.000880952 0)
(0.978644 0.000870615 0)
(0.977532 0.000856233 0)
(0.976437 0.000840163 0)
(0.975378 0.000822019 0)
(0.974343 0.000801574 0)
(0.973299 0.000782036 0)
(0.972231 0.000766269 0)
(0.971159 0.000753656 0)
(0.970115 0.000742714 0)
(0.969104 0.000734986 0)
(0.968091 0.000733975 0)
(0.96704 0.000740171 0)
(0.965957 0.000751738 0)
(0.964871 0.000767868 0)
(0.963793 0.000787431 0)
(0.962689 0.00080878 0)
(0.961513 0.000830972 0)
(0.96027 0.000851561 0)
(0.959013 0.000866332 0)
(0.957762 0.000873286 0)
(0.956496 0.000873753 0)
(0.955202 0.0008693 0)
(0.953901 0.000859848 0)
(0.952625 0.000845546 0)
(0.951381 0.000829971 0)
(0.950133 0.000818492 0)
(0.948859 0.000812897 0)
(0.947585 0.000811894 0)
(0.946325 0.000816104 0)
(0.945052 0.000826609 0)
(0.943738 0.000840353 0)
(0.942393 0.000852221 0)
(0.94103 0.000859283 0)
(0.939645 0.000860239 0)
(0.93824 0.000854233 0)
(0.936839 0.000842258 0)
(0.935458 0.000827478 0)
(0.934095 0.000814032 0)
(0.932735 0.000806827 0)
(0.931366 0.000809917 0)
(0.929976 0.000821634 0)
(0.928556 0.000833555 0)
(0.927113 0.000837736 0)
(0.925658 0.000834086 0)
(0.924195 0.000828058 0)
(0.922724 0.000823275 0)
(0.921251 0.000819997 0)
(0.919778 0.000818548 0)
(0.918297 0.000820088 0)
(0.916796 0.00082352 0)
(0.915275 0.000825031 0)
(0.913744 0.000822612 0)
(0.912208 0.000818849 0)
(0.910665 0.000817888 0)
(0.909107 0.000820124 0)
(0.907535 0.000821539 0)
(0.905951 0.000818757 0)
(0.904362 0.000813736 0)
(0.902768 0.000811743 0)
(0.901161 0.000814825 0)
(0.899535 0.000818875 0)
(0.897893 0.000817618 0)
(0.896245 0.000809995 0)
(0.894601 0.000801851 0)
(0.892957 0.000800573 0)
(0.891297 0.000807425 0)
(0.889609 0.000814947 0)
(0.887896 0.000813559 0)
(0.88618 0.00080005 0)
(0.884486 0.000780836 0)
(0.882822 0.000767914 0)
(0.881172 0.000769859 0)
(0.8795 0.000785178 0)
(0.877777 0.00080203 0)
(0.876004 0.000803434 0)
(0.874222 0.000775463 0)
(0.872503 0.000713327 0)
(0.870931 0.000622805 0)
(0.869576 0.000517104 0)
(0.868479 0.000410775 0)
(0.867649 0.000315085 0)
(0.867065 0.000236081 0)
(0.866685 0.000173185 0)
(0.86646 0.000122829 0)
(0.866343 8.65761e-05 0)
(0.866294 6.14234e-05 0)
(0.866284 4.40468e-05 0)
(0.866293 3.09223e-05 0)
(0.866309 2.17782e-05 0)
(0.866325 1.52639e-05 0)
(0.866339 1.05163e-05 0)
(0.86635 7.04647e-06 0)
(0.866358 4.53337e-06 0)
(0.866364 2.74353e-06 0)
(0.866368 1.49716e-06 0)
(0.866371 6.83239e-07 0)
(0.866372 1.90982e-07 0)
(0.866374 -8.90609e-08 0)
(0.866374 -2.31735e-07 0)
(0.866375 -2.78774e-07 0)
(0.866375 -2.78091e-07 0)
(0.866375 -2.55736e-07 0)
(0.866375 -2.25346e-07 0)
(0.866375 -1.93796e-07 0)
(0.866375 -1.64267e-07 0)
(0.866375 -1.38002e-07 0)
(0.866375 -1.15276e-07 0)
(0.866374 -9.59017e-08 0)
(0.866374 -7.95293e-08 0)
(0.866374 -6.57705e-08 0)
(0.866374 -5.4248e-08 0)
(0.866374 -4.4614e-08 0)
(0.866373 -3.65637e-08 0)
(0.866373 -2.98484e-08 0)
(0.866373 -2.42624e-08 0)
(0.866373 -1.96192e-08 0)
(0.866373 -1.57729e-08 0)
(0.866373 -1.25871e-08 0)
(0.866372 -9.95659e-09 0)
(0.866372 -7.78968e-09 0)
(0.866372 -6.00058e-09 0)
(0.866372 -4.55203e-09 0)
(0.866372 -3.37393e-09 0)
(0.866372 -2.42869e-09 0)
(0.866372 -1.66151e-09 0)
(0.866372 -1.05712e-09 0)
(0.866372 -5.86018e-10 0)
(0.866372 -2.32697e-10 0)
(0.866371 4.15972e-11 0)
(0.866371 2.60609e-10 0)
(0.866371 4.19724e-10 0)
(0.866371 5.3904e-10 0)
(0.866371 5.99887e-10 0)
(0.866371 6.21603e-10 0)
(0.866371 6.55011e-10 0)
(0.866371 6.20621e-10 0)
(0.866371 6.50591e-10 0)
(0.866371 5.76183e-10 0)
(0.866371 6.29538e-10 0)
(0.866371 4.85014e-10 0)
(0.866371 6.70494e-10 0)
(0.866371 2.60537e-10 0)
(0.866371 8.29016e-10 0)
(0.866371 -2.07365e-10 0)
(0.866371 1.30002e-09 0)
(0.866371 -1.23287e-09 0)
(0.866371 2.61085e-09 0)
(0.866371 -3.47517e-09 0)
(0.866371 5.75319e-09 0)
(0.866371 -8.17246e-09 0)
(0.866371 1.21498e-08 0)
(0.866371 -1.72778e-08 0)
(0.866371 2.45971e-08 0)
(0.866371 -3.44049e-08 0)
(0.866371 4.73678e-08 0)
(0.866372 -6.39683e-08 0)
(0.86637 8.44713e-08 0)
(0.866372 -1.09132e-07 0)
(0.866369 1.37155e-07 0)
(0.866373 -1.67416e-07 0)
(0.866368 1.97176e-07 0)
(0.866375 -2.22593e-07 0)
(0.866366 2.38156e-07 0)
(0.866378 -2.37209e-07 0)
(0.866362 2.12187e-07 0)
(0.866382 -1.55297e-07 0)
(0.866357 5.99736e-08 0)
(0.866387 7.51078e-08 0)
(0.866351 -2.20498e-07 0)
(0.866394 3.73837e-07 0)
(0.866345 -5.09121e-07 0)
(0.866401 5.94015e-07 0)
(0.866339 -5.97263e-07 0)
(0.866405 5.00072e-07 0)
(0.866337 -3.01146e-07 0)
(0.866405 2.53196e-08 0)
(0.866339 2.20815e-07 0)
(0.8664 -3.84904e-07 0)
(0.866344 4.22173e-07 0)
(0.866397 -3.06412e-07 0)
(0.866345 7.34426e-08 0)
(0.866399 1.90044e-07 0)
(0.866341 -3.42861e-07 0)
(0.866404 3.47064e-07 0)
(0.866337 -1.97295e-07 0)
(0.866405 -1.88247e-08 0)
(0.866338 2.15353e-07 0)
(0.866402 -2.89035e-07 0)
(0.86634 2.74508e-07 0)
(0.866402 -1.58158e-07 0)
(0.866336 1.09889e-07 0)
(0.866406 7.70589e-09 0)
(0.866329 1.15182e-07 0)
(0.866405 -1.50711e-08 0)
(0.866322 5.55469e-07 0)
(0.866394 -6.13702e-07 0)
(0.866312 1.51749e-06 0)
(0.866366 -7.97858e-07 0)
(0.866272 2.47637e-06 0)
(1.00047 0.000512468 0)
(1.0002 0.000506527 0)
(0.999853 0.000568881 0)
(0.999566 0.00067156 0)
(0.999402 0.000781757 0)
(0.999365 0.000888523 0)
(0.999414 0.000989785 0)
(0.9995 0.00107961 0)
(0.999598 0.0011432 0)
(0.999704 0.00116627 0)
(0.999815 0.00115343 0)
(0.999923 0.00112579 0)
(1.00002 0.00110631 0)
(1.0001 0.00110348 0)
(1.00014 0.00111042 0)
(1.00013 0.00111881 0)
(1.00009 0.00112793 0)
(1.00008 0.00114277 0)
(1.00008 0.00116446 0)
(1.00009 0.00118308 0)
(1.0001 0.00118747 0)
(1.0001 0.00117788 0)
(1.00011 0.00116212 0)
(1.00011 0.00114569 0)
(1.00014 0.00112746 0)
(1.00018 0.00110601 0)
(1.0002 0.00108602 0)
(1.00018 0.00107239 0)
(1.00013 0.00106322 0)
(1.0001 0.00105371 0)
(1.00009 0.00104487 0)
(1.00009 0.00104248 0)
(1.00006 0.00104802 0)
(1 0.00105849 0)
(0.999972 0.00107235 0)
(0.999977 0.00108941 0)
(0.999991 0.00110968 0)
(0.999972 0.00113274 0)
(0.999923 0.00115509 0)
(0.999888 0.0011713 0)
(0.999883 0.00117901 0)
(0.999882 0.00118011 0)
(0.999862 0.00117669 0)
(0.999829 0.00116778 0)
(0.999809 0.00115214 0)
(0.999806 0.00113396 0)
(0.999788 0.00112059 0)
(0.999734 0.00111395 0)
(0.999675 0.00111138 0)
(0.999638 0.001114 0)
(0.999606 0.00112478 0)
(0.99956 0.00114063 0)
(0.999513 0.00115522 0)
(0.999477 0.00116568 0)
(0.999439 0.00117075 0)
(0.999391 0.00116772 0)
(0.999341 0.00115605 0)
(0.999298 0.00113987 0)
(0.999254 0.00112451 0)
(0.999197 0.00111445 0)
(0.99913 0.00111382 0)
(0.99906 0.00112367 0)
(0.998991 0.00113827 0)
(0.998925 0.00114898 0)
(0.998862 0.00115179 0)
(0.998796 0.00114849 0)
(0.99872 0.00114257 0)
(0.998641 0.00113687 0)
(0.998564 0.00113406 0)
(0.998486 0.00113555 0)
(0.998402 0.00113972 0)
(0.998313 0.00114317 0)
(0.998224 0.00114387 0)
(0.998133 0.00114269 0)
(0.998039 0.00114187 0)
(0.997942 0.00114258 0)
(0.997844 0.0011436 0)
(0.997744 0.00114303 0)
(0.997641 0.00114081 0)
(0.997532 0.00113935 0)
(0.997422 0.0011408 0)
(0.997313 0.00114376 0)
(0.997204 0.00114407 0)
(0.997092 0.00113909 0)
(0.996974 0.0011317 0)
(0.996853 0.00112837 0)
(0.996732 0.0011326 0)
(0.996614 0.00114049 0)
(0.996498 0.00114269 0)
(0.996382 0.00113152 0)
(0.996265 0.00110859 0)
(0.996147 0.0010853 0)
(0.99603 0.00107544 0)
(0.995916 0.00108515 0)
(0.995806 0.00110621 0)
(0.995704 0.00111823 0)
(0.995619 0.00109798 0)
(0.995562 0.00102988 0)
(0.99555 0.000911604 0)
(0.995597 0.000753506 0)
(0.995712 0.000574956 0)
(0.995892 0.000398183 0)
(0.996122 0.000241285 0)
(0.996381 0.000117083 0)
(0.99665 3.66832e-05 0)
(0.996913 -1.28753e-05 0)
(0.99715 -3.91208e-05 0)
(0.997351 -4.8278e-05 0)
(0.997513 -4.77657e-05 0)
(0.997638 -4.16322e-05 0)
(0.997729 -3.3397e-05 0)
(0.997793 -2.52032e-05 0)
(0.997836 -1.80988e-05 0)
(0.997863 -1.24492e-05 0)
(0.99788 -8.22213e-06 0)
(0.997889 -5.22995e-06 0)
(0.997893 -3.14107e-06 0)
(0.997895 -1.77937e-06 0)
(0.997894 -9.26339e-07 0)
(0.997893 -3.79791e-07 0)
(0.997891 -6.07223e-08 0)
(0.997889 1.23053e-07 0)
(0.997887 2.27476e-07 0)
(0.997885 2.84349e-07 0)
(0.997883 3.12236e-07 0)
(0.997882 3.22172e-07 0)
(0.99788 3.20844e-07 0)
(0.997879 3.12424e-07 0)
(0.997877 2.99599e-07 0)
(0.997876 2.84138e-07 0)
(0.997875 2.67199e-07 0)
(0.997874 2.49577e-07 0)
(0.997873 2.31827e-07 0)
(0.997872 2.14361e-07 0)
(0.997872 1.97441e-07 0)
(0.997871 1.81219e-07 0)
(0.99787 1.65813e-07 0)
(0.99787 1.51275e-07 0)
(0.997869 1.37658e-07 0)
(0.997869 1.24969e-07 0)
(0.997868 1.13201e-07 0)
(0.997868 1.02339e-07 0)
(0.997868 9.23229e-08 0)
(0.997867 8.31194e-08 0)
(0.997867 7.46935e-08 0)
(0.997867 6.70143e-08 0)
(0.997867 6.00116e-08 0)
(0.997866 5.36469e-08 0)
(0.997866 4.78447e-08 0)
(0.997866 4.26146e-08 0)
(0.997866 3.79095e-08 0)
(0.997866 3.36841e-08 0)
(0.997866 2.98835e-08 0)
(0.997866 2.64561e-08 0)
(0.997866 2.33449e-08 0)
(0.997866 2.06189e-08 0)
(0.997865 1.8122e-08 0)
(0.997865 1.59994e-08 0)
(0.997865 1.39867e-08 0)
(0.997865 1.2376e-08 0)
(0.997865 1.06813e-08 0)
(0.997865 9.65594e-09 0)
(0.997865 7.90177e-09 0)
(0.997865 7.76336e-09 0)
(0.997865 5.357e-09 0)
(0.997865 6.7463e-09 0)
(0.997865 2.61158e-09 0)
(0.997865 7.11841e-09 0)
(0.997865 -1.19345e-09 0)
(0.997865 1.00388e-08 0)
(0.997865 -7.6157e-09 0)
(0.997865 1.75646e-08 0)
(0.997865 -1.99679e-08 0)
(0.997864 3.34015e-08 0)
(0.997866 -4.28658e-08 0)
(0.997864 6.28922e-08 0)
(0.997867 -8.22671e-08 0)
(0.997863 1.11974e-07 0)
(0.997868 -1.43228e-07 0)
(0.997861 1.82959e-07 0)
(0.997871 -2.2263e-07 0)
(0.997857 2.64246e-07 0)
(0.997875 -2.96833e-07 0)
(0.997852 3.16353e-07 0)
(0.99788 -3.08614e-07 0)
(0.997846 2.65333e-07 0)
(0.997887 -1.75029e-07 0)
(0.99784 4.05429e-08 0)
(0.997893 1.49499e-07 0)
(0.997834 -3.78001e-07 0)
(0.997898 6.10991e-07 0)
(0.997831 -8.00257e-07 0)
(0.9979 8.96137e-07 0)
(0.997831 -8.50054e-07 0)
(0.997899 6.45121e-07 0)
(0.997833 -3.0765e-07 0)
(0.997896 -8.79858e-08 0)
(0.997835 4.74284e-07 0)
(0.997894 -7.04095e-07 0)
(0.997837 6.99958e-07 0)
(0.997894 -4.48106e-07 0)
(0.997835 7.28342e-08 0)
(0.997896 2.95341e-07 0)
(0.997833 -4.99847e-07 0)
(0.997898 4.53288e-07 0)
(0.997832 -1.58815e-07 0)
(0.997897 -1.8409e-07 0)
(0.997834 4.79384e-07 0)
(0.997895 -5.28243e-07 0)
(0.997834 4.82402e-07 0)
(0.997897 -2.80194e-07 0)
(0.99783 2.69894e-07 0)
(0.997899 -9.75446e-08 0)
(0.997825 3.62418e-07 0)
(0.997897 -1.88888e-07 0)
(0.997822 1.01991e-06 0)
(0.997884 -9.14347e-07 0)
(0.997813 2.22038e-06 0)
(0.997862 -7.40134e-07 0)
(0.997777 3.75917e-06 0)
(1.00042 0.000332833 0)
(1.0002 0.000312376 0)
(0.999907 0.000335361 0)
(0.999652 0.000391354 0)
(0.999502 0.000468721 0)
(0.999469 0.000555013 0)
(0.999515 0.000643158 0)
(0.999587 0.000726897 0)
(0.999656 0.000796828 0)
(0.999723 0.000841307 0)
(0.999806 0.000853942 0)
(0.999916 0.000846833 0)
(1.00004 0.000837508 0)
(1.00015 0.000834719 0)
(1.00021 0.000838176 0)
(1.00022 0.000844378 0)
(1.00021 0.000851823 0)
(1.00023 0.000862537 0)
(1.00026 0.000880467 0)
(1.00029 0.00090274 0)
(1.00032 0.000917797 0)
(1.00033 0.00091795 0)
(1.00036 0.000907124 0)
(1.00039 0.000893212 0)
(1.00045 0.000878204 0)
(1.00051 0.000860684 0)
(1.00055 0.000843175 0)
(1.00055 0.000831177 0)
(1.00053 0.000826094 0)
(1.00051 0.00082361 0)
(1.00053 0.00082147 0)
(1.00055 0.000823 0)
(1.00054 0.000830229 0)
(1.00052 0.000840905 0)
(1.00052 0.000852675 0)
(1.00056 0.000865397 0)
(1.00062 0.000880452 0)
(1.00064 0.000898138 0)
(1.00064 0.000915392 0)
(1.00066 0.000927855 0)
(1.0007 0.000934001 0)
(1.00076 0.000935363 0)
(1.00079 0.000933133 0)
(1.00081 0.000926908 0)
(1.00084 0.000917184 0)
(1.00089 0.000907483 0)
(1.00093 0.000902264 0)
(1.00093 0.000902573 0)
(1.00092 0.000906391 0)
(1.00095 0.000913081 0)
(1.00098 0.00092328 0)
(1.00101 0.000934966 0)
(1.00103 0.000944279 0)
(1.00107 0.000949396 0)
(1.00111 0.000950132 0)
(1.00114 0.00094577 0)
(1.00117 0.000936685 0)
(1.0012 0.000926285 0)
(1.00123 0.000919076 0)
(1.00125 0.000918524 0)
(1.00126 0.00092625 0)
(1.00128 0.000939801 0)
(1.0013 0.000951929 0)
(1.00133 0.000956254 0)
(1.00137 0.000953354 0)
(1.0014 0.000948697 0)
(1.00142 0.000946015 0)
(1.00144 0.00094568 0)
(1.00147 0.000947671 0)
(1.00149 0.000952215 0)
(1.00152 0.000957881 0)
(1.00154 0.000961555 0)
(1.00157 0.000961709 0)
(1.0016 0.00096029 0)
(1.00162 0.000960633 0)
(1.00165 0.000963717 0)
(1.00168 0.000966943 0)
(1.0017 0.000967152 0)
(1.00173 0.000964814 0)
(1.00176 0.000963833 0)
(1.00179 0.00096692 0)
(1.00182 0.000971755 0)
(1.00185 0.000972675 0)
(1.00188 0.00096709 0)
(1.00191 0.000959131 0)
(1.00194 0.000956461 0)
(1.00198 0.000962368 0)
(1.00202 0.000971091 0)
(1.00206 0.000971666 0)
(1.00211 0.000957147 0)
(1.00215 0.000931584 0)
(1.00218 0.000908745 0)
(1.00223 0.000902488 0)
(1.00228 0.000915845 0)
(1.00235 0.000935937 0)
(1.00245 0.000938646 0)
(1.00255 0.000899887 0)
(1.00265 0.000806111 0)
(1.00274 0.000660445 0)
(1.0028 0.000481084 0)
(1.00282 0.000293696 0)
(1.00282 0.000123104 0)
(1.00278 -1.29541e-05 0)
(1.00274 -0.00010544 0)
(1.00269 -0.000153523 0)
(1.00262 -0.000169959 0)
(1.00256 -0.000163108 0)
(1.00251 -0.000141375 0)
(1.00247 -0.000113133 0)
(1.00244 -8.49742e-05 0)
(1.00241 -6.02802e-05 0)
(1.00239 -4.04976e-05 0)
(1.00238 -2.57231e-05 0)
(1.00236 -1.52923e-05 0)
(1.00236 -8.32308e-06 0)
(1.00235 -3.99826e-06 0)
(1.00234 -1.42188e-06 0)
(1.00234 9.77766e-08 0)
(1.00233 9.74717e-07 0)
(1.00233 1.464e-06 0)
(1.00232 1.67909e-06 0)
(1.00232 1.73644e-06 0)
(1.00232 1.7068e-06 0)
(1.00231 1.6309e-06 0)
(1.00231 1.53225e-06 0)
(1.00231 1.42421e-06 0)
(1.0023 1.31427e-06 0)
(1.0023 1.20657e-06 0)
(1.0023 1.10341e-06 0)
(1.0023 1.006e-06 0)
(1.0023 9.1484e-07 0)
(1.0023 8.30092e-07 0)
(1.0023 7.51696e-07 0)
(1.00229 6.79512e-07 0)
(1.00229 6.13278e-07 0)
(1.00229 5.52667e-07 0)
(1.00229 4.9733e-07 0)
(1.00229 4.46878e-07 0)
(1.00229 4.00996e-07 0)
(1.00229 3.59335e-07 0)
(1.00229 3.216e-07 0)
(1.00229 2.87469e-07 0)
(1.00229 2.56626e-07 0)
(1.00229 2.28781e-07 0)
(1.00229 2.03699e-07 0)
(1.00229 1.81149e-07 0)
(1.00229 1.60882e-07 0)
(1.00229 1.42709e-07 0)
(1.00229 1.26375e-07 0)
(1.00229 1.11797e-07 0)
(1.00229 9.87703e-08 0)
(1.00229 8.71878e-08 0)
(1.00229 7.68542e-08 0)
(1.00229 6.76431e-08 0)
(1.00229 5.941e-08 0)
(1.00229 5.21413e-08 0)
(1.00229 4.56909e-08 0)
(1.00229 4.00213e-08 0)
(1.00229 3.49986e-08 0)
(1.00229 3.05676e-08 0)
(1.00229 2.66296e-08 0)
(1.00229 2.32762e-08 0)
(1.00229 2.00746e-08 0)
(1.00229 1.76818e-08 0)
(1.00229 1.49438e-08 0)
(1.00229 1.34764e-08 0)
(1.00229 1.08411e-08 0)
(1.00229 1.06562e-08 0)
(1.00229 7.15976e-09 0)
(1.00229 9.43959e-09 0)
(1.00229 3.16872e-09 0)
(1.00228 1.03511e-08 0)
(1.00229 -2.80222e-09 0)
(1.00228 1.45314e-08 0)
(1.00229 -1.22879e-08 0)
(1.00228 2.5309e-08 0)
(1.00229 -2.95783e-08 0)
(1.00228 4.65729e-08 0)
(1.00229 -5.92272e-08 0)
(1.00228 8.27231e-08 0)
(1.00229 -1.04083e-07 0)
(1.00228 1.33026e-07 0)
(1.00229 -1.57447e-07 0)
(1.00227 1.80796e-07 0)
(1.0023 -1.89408e-07 0)
(1.00227 1.79915e-07 0)
(1.00231 -1.3605e-07 0)
(1.00226 5.74923e-08 0)
(1.00231 5.71772e-08 0)
(1.00225 -2.17097e-07 0)
(1.00232 3.96479e-07 0)
(1.00225 -5.60574e-07 0)
(1.00232 6.70467e-07 0)
(1.00225 -6.7503e-07 0)
(1.00232 5.45068e-07 0)
(1.00225 -2.7423e-07 0)
(1.00231 -6.11195e-08 0)
(1.00226 4.21192e-07 0)
(1.00231 -6.64498e-07 0)
(1.00226 7.1226e-07 0)
(1.00231 -5.19209e-07 0)
(1.00226 1.80649e-07 0)
(1.00232 1.84025e-07 0)
(1.00225 -3.74182e-07 0)
(1.00232 3.37262e-07 0)
(1.00225 -4.32749e-08 0)
(1.00232 -2.81892e-07 0)
(1.00226 5.91134e-07 0)
(1.00231 -6.34452e-07 0)
(1.00226 6.1497e-07 0)
(1.00232 -3.87465e-07 0)
(1.00225 4.41944e-07 0)
(1.00232 -2.79444e-07 0)
(1.00225 6.23829e-07 0)
(1.00232 -3.63695e-07 0)
(1.00224 1.05592e-06 0)
(1.0023 -6.13586e-07 0)
(1.00223 1.82788e-06 0)
(1.00228 -4.48971e-08 0)
(1.0022 2.93554e-06 0)
(1.00038 0.000381017 0)
(1.00021 0.000366784 0)
(0.999961 0.000386053 0)
(0.999742 0.000435291 0)
(0.999615 0.000505693 0)
(0.999591 0.000586658 0)
(0.999637 0.000670283 0)
(0.999703 0.000751691 0)
(0.999756 0.000825897 0)
(0.999798 0.000885451 0)
(0.999854 0.000924926 0)
(0.999943 0.000945265 0)
(1.00006 0.000951718 0)
(1.00016 0.000951063 0)
(1.00023 0.000950894 0)
(1.00024 0.000955544 0)
(1.00023 0.00096172 0)
(1.00024 0.000965667 0)
(1.00028 0.000972394 0)
(1.00032 0.000989247 0)
(1.00033 0.0010122 0)
(1.00033 0.00102739 0)
(1.00034 0.00102832 0)
(1.00038 0.00102111 0)
(1.00043 0.00101203 0)
(1.00049 0.00100126 0)
(1.00054 0.000987653 0)
(1.00055 0.000974302 0)
(1.00054 0.000967008 0)
(1.00053 0.000966662 0)
(1.00055 0.000969051 0)
(1.00058 0.000972676 0)
(1.00058 0.00097961 0)
(1.00056 0.000989473 0)
(1.00056 0.000998683 0)
(1.00061 0.00100569 0)
(1.00067 0.00101349 0)
(1.0007 0.00102525 0)
(1.00069 0.00103909 0)
(1.0007 0.00105018 0)
(1.00074 0.00105715 0)
(1.00079 0.0010612 0)
(1.00082 0.00106153 0)
(1.00083 0.0010572 0)
(1.00086 0.00104969 0)
(1.00091 0.00104165 0)
(1.00095 0.00103613 0)
(1.00095 0.00103509 0)
(1.00095 0.00103741 0)
(1.00098 0.001041 0)
(1.00102 0.00104572 0)
(1.00104 0.00105191 0)
(1.00107 0.00105825 0)
(1.00111 0.00106332 0)
(1.00115 0.00106676 0)
(1.00118 0.00106772 0)
(1.0012 0.00106484 0)
(1.00123 0.00105882 0)
(1.00126 0.0010529 0)
(1.00128 0.0010502 0)
(1.0013 0.00105178 0)
(1.00132 0.00105653 0)
(1.00135 0.0010621 0)
(1.00138 0.00106638 0)
(1.00142 0.00106874 0)
(1.00146 0.00106966 0)
(1.00148 0.00106954 0)
(1.0015 0.00106874 0)
(1.00153 0.00106829 0)
(1.00156 0.00106929 0)
(1.00159 0.00107148 0)
(1.00162 0.00107359 0)
(1.00165 0.00107485 0)
(1.00168 0.00107541 0)
(1.00171 0.00107583 0)
(1.00174 0.00107627 0)
(1.00177 0.00107656 0)
(1.00181 0.00107647 0)
(1.00184 0.001076 0)
(1.00187 0.00107538 0)
(1.0019 0.00107488 0)
(1.00194 0.00107432 0)
(1.00198 0.00107295 0)
(1.00202 0.00107035 0)
(1.00206 0.00106695 0)
(1.00209 0.00106384 0)
(1.00213 0.00106144 0)
(1.00217 0.00105865 0)
(1.00223 0.00105337 0)
(1.00229 0.00104402 0)
(1.00234 0.00103141 0)
(1.00239 0.00101826 0)
(1.00243 0.00100706 0)
(1.00247 0.000997533 0)
(1.00254 0.000984911 0)
(1.00263 0.000960758 0)
(1.00274 0.000915916 0)
(1.00286 0.000844717 0)
(1.00296 0.000747347 0)
(1.00302 0.000630153 0)
(1.00305 0.000503965 0)
(1.00303 0.000380716 0)
(1.00297 0.000270839 0)
(1.00289 0.000179294 0)
(1.00279 0.000102571 0)
(1.0027 4.8368e-05 0)
(1.00263 1.51052e-05 0)
(1.00257 -3.04936e-06 0)
(1.00252 -1.10544e-05 0)
(1.00249 -1.30457e-05 0)
(1.00247 -1.16846e-05 0)
(1.00245 -8.79006e-06 0)
(1.00244 -5.41432e-06 0)
(1.00244 -2.33987e-06 0)
(1.00243 6.83993e-08 0)
(1.00243 1.92123e-06 0)
(1.00242 3.03266e-06 0)
(1.00242 3.62871e-06 0)
(1.00241 3.89267e-06 0)
(1.00241 3.92872e-06 0)
(1.00241 3.83842e-06 0)
(1.0024 3.66761e-06 0)
(1.0024 3.45002e-06 0)
(1.0024 3.20944e-06 0)
(1.00239 2.9617e-06 0)
(1.00239 2.71694e-06 0)
(1.00239 2.48135e-06 0)
(1.00239 2.25846e-06 0)
(1.00239 2.05001e-06 0)
(1.00238 1.85666e-06 0)
(1.00238 1.67834e-06 0)
(1.00238 1.51462e-06 0)
(1.00238 1.36478e-06 0)
(1.00238 1.22807e-06 0)
(1.00238 1.10366e-06 0)
(1.00238 9.90655e-07 0)
(1.00238 8.8818e-07 0)
(1.00237 7.95338e-07 0)
(1.00237 7.11371e-07 0)
(1.00237 6.35521e-07 0)
(1.00237 5.67132e-07 0)
(1.00237 5.05536e-07 0)
(1.00237 4.5012e-07 0)
(1.00237 4.00306e-07 0)
(1.00237 3.55584e-07 0)
(1.00237 3.15504e-07 0)