/*--------------------------------*- C++ -*----------------------------------*\
| =========                 |                                                 |
| \\      /  F ield         | OpenFOAM: The Open Source CFD Toolbox           |
|  \\    /   O peration     | Version:  v1906                                 |
|   \\  /    A nd           | Web:      www.OpenFOAM.com                      |
|    \\/     M anipulation  |                                                 |
\*---------------------------------------------------------------------------*/
FoamFile
{
    version     2.0;
    format      ascii;
    class       volScalarField;
    location    "0.4";
    object      p;
}
// * * * * * * * * * * * * * * * * * * * * * * * * * * * * * * * * * * * * * //

dimensions      [0 2 -2 0 0 0 0];


internalField   nonuniform List<scalar> 
800
(
3.32253e-07
0.00935649
0.0222372
0.0351151
0.0489016
0.0635225
0.0792747
0.0965152
0.115752
0.137698
0.163352
0.194124
0.231989
0.279875
0.342394
0.42396
0.526771
0.696276
1.07066
1.22488
-0.00633317
0.00136173
0.013327
0.0254397
0.0384581
0.0521892
0.0668576
0.0827262
0.10017
0.119693
0.141955
0.167789
0.198173
0.234156
0.2769
0.325337
0.36917
0.40436
0.454478
0.276249
-0.0180964
-0.0129571
-0.00253294
0.00828176
0.0199437
0.0321197
0.0448926
0.0583608
0.0726621
0.0879338
0.104251
0.121506
0.139157
0.15577
0.168442
0.170857
0.149007
0.0863487
-0.0295312
-0.278725
-0.0316735
-0.0285409
-0.0196002
-0.0101216
8.20215e-05
0.0105657
0.0212554
0.0320677
0.0428788
0.0534374
0.0632382
0.0713249
0.0759769
0.0742735
0.0616531
0.0312177
-0.0268749
-0.12228
-0.263782
-0.472978
-0.0470007
-0.0452852
-0.0377412
-0.0296236
-0.0209737
-0.0123259
-0.00391479
0.00398781
0.0109964
0.0164982
0.0195054
0.0184665
0.0110451
-0.00607148
-0.0371957
-0.0874682
-0.162124
-0.264495
-0.395939
-0.557358
-0.0646035
-0.0638986
-0.0577317
-0.0510475
-0.0440953
-0.0374809
-0.0315946
-0.0268896
-0.0239857
-0.0237836
-0.0275882
-0.0372233
-0.0550954
-0.0841264
-0.127468
-0.187989
-0.26743
-0.365284
-0.478599
-0.601964
-0.0847325
-0.0847042
-0.0798971
-0.0747178
-0.0695992
-0.065198
-0.0620397
-0.0607293
-0.0620589
-0.0670974
-0.0772568
-0.0943071
-0.120292
-0.157299
-0.207062
-0.270456
-0.346949
-0.434197
-0.528177
-0.623546
-0.107511
-0.107865
-0.104379
-0.100758
-0.0975761
-0.0955173
-0.0952041
-0.0973406
-0.102802
-0.112684
-0.128299
-0.151109
-0.18255
-0.223762
-0.275247
-0.336545
-0.406034
-0.480966
-0.557822
-0.632802
-0.133046
-0.133543
-0.13132
-0.129289
-0.128106
-0.128453
-0.130996
-0.136471
-0.145735
-0.159775
-0.17965
-0.206373
-0.240726
-0.283031
-0.332946
-0.389343
-0.450336
-0.513491
-0.576191
-0.636
-0.161424
-0.161885
-0.16085
-0.160417
-0.161244
-0.163977
-0.169268
-0.177807
-0.190343
-0.207651
-0.230453
-0.259292
-0.294383
-0.335479
-0.381788
-0.431991
-0.484374
-0.537054
-0.58824
-0.636445
-0.192689
-0.192995
-0.193055
-0.194192
-0.19698
-0.201991
-0.209797
-0.220976
-0.236099
-0.255679
-0.280087
-0.309461
-0.343612
-0.381969
-0.423595
-0.467262
-0.511598
-0.555254
-0.59707
-0.636163
-0.226831
-0.226911
-0.227956
-0.230598
-0.235235
-0.242322
-0.252302
-0.265588
-0.282534
-0.303386
-0.328214
-0.356857
-0.38889
-0.423624
-0.460167
-0.497506
-0.534624
-0.570612
-0.604744
-0.636511
-0.263771
-0.26359
-0.265502
-0.269544
-0.275862
-0.284751
-0.296486
-0.311287
-0.32929
-0.350505
-0.374778
-0.401768
-0.430955
-0.461669
-0.493154
-0.524641
-0.555425
-0.584915
-0.612679
-0.638434
-0.303344
-0.302895
-0.305553
-0.310868
-0.318661
-0.329035
-0.342076
-0.357808
-0.376171
-0.396995
-0.419986
-0.444726
-0.470698
-0.497325
-0.524022
-0.550242
-0.575521
-0.599497
-0.621928
-0.64267
-0.345276
-0.344572
-0.34788
-0.354343
-0.363407
-0.374954
-0.388878
-0.405024
-0.423177
-0.44305
-0.464282
-0.48645
-0.509101
-0.531779
-0.554063
-0.57559
-0.596078
-0.615327
-0.633218
-0.6497
-0.389132
-0.3882
-0.392119
-0.399665
-0.409863
-0.422347
-0.436831
-0.453008
-0.470553
-0.489117
-0.508336
-0.527837
-0.547261
-0.566281
-0.584617
-0.602051
-0.618426
-0.633648
-0.647677
-0.660511
-0.434248
-0.433106
-0.437674
-0.446347
-0.457671
-0.471021
-0.485943
-0.502004
-0.518796
-0.535942
-0.553096
-0.569948
-0.586242
-0.601775
-0.6164
-0.63003
-0.642622
-0.654173
-0.664711
-0.674286
-0.479804
-0.478673
-0.484134
-0.494115
-0.506651
-0.520869
-0.536203
-0.552156
-0.568304
-0.584289
-0.599815
-0.614644
-0.628593
-0.641535
-0.653395
-0.664144
-0.673792
-0.682383
-0.689981
-0.696657
-0.524829
-0.525165
-0.532865
-0.545128
-0.559507
-0.574912
-0.590674
-0.606248
-0.62121
-0.635257
-0.648197
-0.659929
-0.670427
-0.679722
-0.687888
-0.69502
-0.701228
-0.706618
-0.711296
-0.71538
-0.563176
-0.567175
-0.57922
-0.595786
-0.614259
-0.63348
-0.652731
-0.671389
-0.688934
-0.704975
-0.719247
-0.731606
-0.742011
-0.750508
-0.757214
-0.762288
-0.765918
-0.768308
-0.769661
-0.770103
-1.25722
-2.31599
-2.27504
-2.04876
-1.85449
-1.70196
-1.58319
-1.48932
-1.41297
-1.34921
-1.29483
-1.24771
-1.20634
-1.16969
-1.13704
-1.10798
-1.0825
-1.06071
-1.04479
-1.0329
-0.871344
-1.54467
-1.71951
-1.71838
-1.66225
-1.58669
-1.51038
-1.44076
-1.37909
-1.32473
-1.27672
-1.23408
-1.196
-1.16185
-1.13119
-1.10377
-1.0797
-1.05911
-1.04415
-1.0327
-0.773782
-1.17284
-1.38299
-1.47116
-1.49022
-1.46985
-1.43095
-1.38573
-1.34002
-1.29634
-1.25568
-1.21826
-1.18401
-1.15276
-1.12437
-1.09879
-1.07627
-1.05698
-1.04308
-1.03221
-0.753547
-1.01398
-1.19463
-1.29952
-1.34959
-1.36212
-1.35127
-1.32744
-1.29728
-1.26473
-1.23205
-1.20042
-1.17045
-1.14244
-1.11658
-1.09303
-1.07217
-1.05425
-1.04148
-1.03136
-0.740408
-0.918363
-1.06318
-1.16545
-1.22935
-1.26219
-1.27202
-1.26622
-1.25056
-1.22922
-1.20501
-1.17976
-1.15462
-1.13031
-1.10734
-1.08609
-1.0671
-1.05071
-1.03918
-1.03006
-0.729235
-0.855324
-0.969166
-1.06113
-1.1284
-1.17221
-1.19606
-1.20433
-1.20128
-1.19049
-1.17478
-1.15624
-1.13634
-1.11614
-1.0964
-1.07774
-1.06084
-1.04616
-1.03604
-1.02812
-0.717499
-0.811405
-0.901448
-0.980799
-1.04525
-1.09328
-1.12551
-1.14391
-1.15105
-1.14959
-1.14193
-1.13008
-1.11562
-1.09981
-1.0836
-1.06779
-1.05319
-1.04038
-1.03183
-1.02529
-0.705174
-0.777932
-0.850193
-0.91762
-0.976558
-1.02469
-1.06112
-1.08619
-1.10107
-1.10741
-1.107
-1.10152
-1.0925
-1.08121
-1.06873
-1.05597
-1.04385
-1.03309
-1.02626
-1.0212
-0.693214
-0.751045
-0.809804
-0.866825
-0.919381
-0.965234
-1.00292
-1.03185
-1.05218
-1.06468
-1.07046
-1.07081
-1.06699
-1.06021
-1.05154
-1.04198
-1.03248
-1.02389
-1.01891
-1.01535
-0.682408
-0.729116
-0.777342
-0.825458
-0.871564
-0.913829
-0.950739
-0.98128
-1.005
-1.022
-1.03279
-1.03817
-1.03912
-1.03664
-1.03175
-1.02543
-1.01862
-1.01228
-1.00924
-1.00704
-0.673415
-0.71146
-0.751214
-0.791688
-0.83161
-0.869603
-0.904349
-0.934755
-0.960067
-0.979939
-0.994415
-1.00387
-1.00894
-1.01038
-1.00905
-1.00586
-1.00173
-0.997639
-0.996529
-0.995402
-0.666792
-0.69785
-0.730596
-0.764438
-0.79855
-0.831952
-0.863604
-0.892516
-0.91786
-0.93906
-0.955843
-0.96824
-0.976552
-0.981288
-0.983109
-0.982783
-0.981146
-0.979188
-0.979867
-0.979329
-0.662994
-0.688265
-0.715083
-0.743103
-0.7718
-0.800507
-0.828455
-0.854839
-0.878891
-0.899976
-0.917649
-0.931708
-0.94219
-0.949358
-0.953662
-0.955704
-0.956183
-0.956056
-0.958189
-0.957549
-0.662439
-0.682815
-0.704526
-0.727375
-0.751036
-0.775069
-0.798934
-0.822018
-0.843688
-0.863351
-0.880518
-0.894862
-0.906247
-0.914738
-0.920591
-0.924228
-0.926185
-0.927347
-0.930346
-0.928699
-0.665388
-0.681559
-0.698818
-0.717047
-0.736041
-0.755513
-0.775092
-0.794337
-0.812759
-0.829866
-0.84521
-0.858436
-0.869324
-0.877811
-0.884005
-0.888165
-0.890662
-0.892278
-0.895259
-0.891492
-0.672658
-0.685122
-0.698386
-0.71238
-0.726971
-0.741969
-0.757121
-0.772116
-0.786596
-0.800181
-0.812503
-0.823244
-0.832175
-0.839183
-0.844286
-0.847626
-0.849433
-0.850377
-0.852176
-0.845036
-0.68332
-0.692562
-0.702338
-0.712573
-0.723158
-0.733943
-0.744736
-0.755307
-0.765393
-0.774716
-0.783006
-0.790026
-0.795601
-0.799638
-0.80214
-0.803185
-0.802904
-0.801862
-0.801129
-0.789322
-0.702712
-0.708675
-0.714793
-0.721021
-0.727274
-0.733443
-0.739394
-0.744965
-0.749976
-0.754231
-0.757543
-0.759747
-0.760727
-0.760428
-0.758862
-0.756078
-0.752147
-0.747549
-0.742649
-0.724722
-0.71915
-0.722888
-0.726588
-0.730115
-0.733338
-0.736103
-0.738235
-0.739544
-0.739841
-0.738947
-0.736718
-0.73306
-0.727952
-0.721451
-0.713686
-0.704808
-0.694974
-0.684668
-0.673477
-0.647954
-0.769628
-0.768279
-0.766166
-0.763264
-0.759445
-0.754577
-0.748547
-0.741254
-0.732618
-0.722597
-0.711202
-0.698518
-0.684716
-0.670057
-0.654874
-0.639505
-0.624251
-0.609299
-0.59233
-0.560585
)
;

boundaryField
{
    zeroGradient_plane
    {
        type            zeroGradient;
    }
    inlet
    {
        type            zeroGradient;
    }
    plate
    {
        type            zeroGradient;
    }
    frontAndBack
    {
        type            empty;
    }
}


// ************************************************************************* //
