/*--------------------------------*- C++ -*----------------------------------*\
| =========                 |                                                 |
| \\      /  F ield         | OpenFOAM: The Open Source CFD Toolbox           |
|  \\    /   O peration     | Version:  v1906                                 |
|   \\  /    A nd           | Web:      www.OpenFOAM.com                      |
|    \\/     M anipulation  |                                                 |
\*---------------------------------------------------------------------------*/
FoamFile
{
    version     2.0;
    format      ascii;
    class       surfaceScalarField;
    location    "0.4";
    object      phi;
}
// * * * * * * * * * * * * * * * * * * * * * * * * * * * * * * * * * * * * * //

dimensions      [0 3 -1 0 0 0 0];
oriented        oriented;


internalField   nonuniform List<scalar> 
1540
(
1.97821e-05
2.48674e-06
1.96315e-05
7.69443e-06
1.94777e-05
1.21573e-05
1.9326e-05
1.58777e-05
1.9178e-05
1.89618e-05
1.90332e-05
2.15268e-05
1.88909e-05
2.36754e-05
1.87499e-05
2.5487e-05
1.86085e-05
2.70137e-05
1.84647e-05
2.82789e-05
1.83154e-05
2.9278e-05
1.81565e-05
2.99803e-05
1.79817e-05
3.03324e-05
1.77815e-05
3.02627e-05
1.75401e-05
2.96833e-05
1.72344e-05
2.84901e-05
1.682e-05
2.65708e-05
1.61638e-05
2.38157e-05
1.49693e-05
2.00014e-05
1.44311e-05
1.31222e-05
2.1535e-05
2.61158e-06
2.13728e-05
7.85656e-06
2.12064e-05
1.23237e-05
2.10433e-05
1.60408e-05
2.08845e-05
1.91205e-05
2.07302e-05
2.16811e-05
2.05797e-05
2.38259e-05
2.04323e-05
2.56345e-05
2.0287e-05
2.7159e-05
2.01427e-05
2.84232e-05
1.99984e-05
2.94224e-05
1.98526e-05
3.01261e-05
1.97039e-05
3.04811e-05
1.95511e-05
3.04155e-05
1.93924e-05
2.98419e-05
1.92246e-05
2.86579e-05
1.90459e-05
2.67496e-05
1.88559e-05
2.40057e-05
1.85832e-05
2.02741e-05
1.52781e-05
1.77362e-05
2.3447e-05
2.73909e-06
2.32749e-05
8.02859e-06
2.30977e-05
1.2501e-05
2.29248e-05
1.62137e-05
2.27582e-05
1.92871e-05
2.25984e-05
2.18409e-05
2.24456e-05
2.39787e-05
2.23001e-05
2.57799e-05
2.2163e-05
2.72961e-05
2.20361e-05
2.85501e-05
2.19225e-05
2.9536e-05
2.18272e-05
3.02213e-05
2.17585e-05
3.05498e-05
2.17281e-05
3.04459e-05
2.17517e-05
2.98184e-05
2.1844e-05
2.85656e-05
2.20066e-05
2.6587e-05
2.21986e-05
2.38137e-05
2.22501e-05
2.02227e-05
1.58886e-05
2.16396e-05
2.55321e-05
2.86543e-06
2.53534e-05
8.20734e-06
2.51681e-05
1.26863e-05
2.49888e-05
1.6393e-05
2.48187e-05
1.94572e-05
2.46595e-05
2.20002e-05
2.45127e-05
2.41255e-05
2.4381e-05
2.59117e-05
2.42684e-05
2.74087e-05
2.41813e-05
2.86372e-05
2.41291e-05
2.95882e-05
2.4125e-05
3.02254e-05
2.41866e-05
3.04882e-05
2.43348e-05
3.02977e-05
2.45889e-05
2.95642e-05
2.49541e-05
2.82005e-05
2.53971e-05
2.6144e-05
2.58175e-05
2.33933e-05
2.60031e-05
2.0037e-05
1.62935e-05
2.55982e-05
2.78052e-05
2.98681e-06
2.76244e-05
8.38819e-06
2.74357e-05
1.28749e-05
2.72553e-05
1.65734e-05
2.70883e-05
1.96241e-05
2.69383e-05
2.21502e-05
2.68089e-05
2.42549e-05
2.6706e-05
2.60146e-05
2.66379e-05
2.74768e-05
2.66167e-05
2.86585e-05
2.66582e-05
2.95467e-05
2.67826e-05
3.0101e-05
2.70125e-05
3.02583e-05
2.73679e-05
2.99422e-05
2.78564e-05
2.90757e-05
2.84563e-05
2.76006e-05
2.90965e-05
2.55037e-05
2.96447e-05
2.28452e-05
2.99084e-05
1.97734e-05
1.65263e-05
2.96756e-05
3.02827e-05
3.09942e-06
3.01058e-05
8.56508e-06
2.99205e-05
1.30602e-05
2.97465e-05
1.67474e-05
2.95918e-05
1.97788e-05
2.94623e-05
2.22798e-05
2.93648e-05
2.43524e-05
2.9309e-05
2.60703e-05
2.93082e-05
2.74775e-05
2.93798e-05
2.85869e-05
2.95449e-05
2.93816e-05
2.98267e-05
2.98192e-05
3.02455e-05
2.98395e-05
3.0811e-05
2.93768e-05
3.15095e-05
2.83772e-05
3.22909e-05
2.68192e-05
3.30596e-05
2.4735e-05
3.36809e-05
2.22239e-05
3.40052e-05
1.9449e-05
1.66155e-05
3.3916e-05
3.29821e-05
3.19949e-06
3.28167e-05
8.73048e-06
3.26439e-05
1.3233e-05
3.24866e-05
1.69048e-05
3.23561e-05
1.99092e-05
3.22614e-05
2.23745e-05
3.22131e-05
2.44007e-05
3.22249e-05
2.60585e-05
3.23148e-05
2.73877e-05
3.2504e-05
2.83976e-05
3.28159e-05
2.90697e-05
3.32711e-05
2.9364e-05
3.3881e-05
2.92295e-05
3.46386e-05
2.86192e-05
3.55081e-05
2.75077e-05
3.64186e-05
2.59086e-05
3.72678e-05
2.38858e-05
3.7938e-05
2.15538e-05
3.83241e-05
1.90629e-05
1.65734e-05
3.83661e-05
3.59227e-05
3.28341e-06
3.57777e-05
8.87545e-06
3.56288e-05
1.33819e-05
3.55013e-05
1.70323e-05
3.54099e-05
2.00006e-05
3.5367e-05
2.24173e-05
3.5387e-05
2.43807e-05
3.54875e-05
2.5958e-05
3.56896e-05
2.71856e-05
3.6016e-05
2.80711e-05
3.64878e-05
2.85979e-05
3.71183e-05
2.87335e-05
3.79056e-05
2.84422e-05
3.88248e-05
2.77e-05
3.9823e-05
2.65096e-05
4.08204e-05
2.49112e-05
4.17215e-05
2.29848e-05
4.24328e-05
2.08424e-05
4.28852e-05
1.86105e-05
1.64093e-05
4.30494e-05
3.91252e-05
3.34774e-06
3.90108e-05
8.98983e-06
3.88995e-05
1.34932e-05
3.88175e-05
1.71142e-05
3.87827e-05
2.00355e-05
3.88106e-05
2.23895e-05
3.89188e-05
2.42726e-05
3.91276e-05
2.57492e-05
3.94592e-05
2.6854e-05
3.99344e-05
2.75959e-05
4.05682e-05
2.79641e-05
4.13631e-05
2.79386e-05
4.23029e-05
2.75024e-05
4.33483e-05
2.66546e-05
4.44371e-05
2.54208e-05
4.54909e-05
2.38574e-05
4.6428e-05
2.20477e-05
4.71787e-05
2.00917e-05
4.76987e-05
1.80905e-05
1.61328e-05
4.79751e-05
4.26124e-05
3.38916e-06
4.25397e-05
9.0625e-06
4.24814e-05
1.35515e-05
4.24631e-05
1.71326e-05
4.25041e-05
1.99945e-05
4.26225e-05
2.22711e-05
4.28378e-05
2.40572e-05
4.31713e-05
2.54157e-05
4.36433e-05
2.6382e-05
4.42697e-05
2.69694e-05
4.50568e-05
2.71771e-05
4.59955e-05
2.7e-05
4.70573e-05
2.64405e-05
4.81942e-05
2.55177e-05
4.93422e-05
2.42728e-05
5.04308e-05
2.27687e-05
5.13943e-05
2.10843e-05
5.21825e-05
1.93035e-05
5.27676e-05
1.75054e-05
1.57553e-05
5.31452e-05
4.6409e-05
3.40449e-06
4.63897e-05
9.08183e-06
4.64012e-05
1.354e-05
4.64658e-05
1.70679e-05
4.66027e-05
1.98576e-05
4.68307e-05
2.20431e-05
4.71695e-05
2.37183e-05
4.76387e-05
2.49465e-05
4.82545e-05
2.57663e-05
4.90256e-05
2.61983e-05
4.99488e-05
2.62539e-05
5.10045e-05
2.59442e-05
5.21564e-05
2.52887e-05
5.33532e-05
2.43209e-05
5.45352e-05
2.30908e-05
5.56427e-05
2.16612e-05
5.6625e-05
2.0102e-05
5.74467e-05
1.84818e-05
5.80905e-05
1.68615e-05
1.52896e-05
5.85562e-05
5.0542e-05
3.39063e-06
5.05879e-05
9.03598e-06
5.06864e-05
1.34414e-05
5.08536e-05
1.69008e-05
5.11057e-05
1.96055e-05
5.14601e-05
2.16887e-05
5.19343e-05
2.32441e-05
5.25439e-05
2.43369e-05
5.32992e-05
2.5011e-05
5.42008e-05
2.52966e-05
5.52367e-05
2.5218e-05
5.63803e-05
2.48007e-05
5.75915e-05
2.40775e-05
5.88209e-05
2.30915e-05
6.00162e-05
2.18955e-05
6.11292e-05
2.05482e-05
6.2122e-05
1.91092e-05
6.29699e-05
1.76339e-05
6.36625e-05
1.6169e-05
1.47509e-05
6.42012e-05
5.50409e-05
3.34448e-06
5.51636e-05
8.91332e-06
5.53659e-05
1.32391e-05
5.56542e-05
1.66125e-05
5.60388e-05
1.92208e-05
5.65327e-05
2.11949e-05
5.71486e-05
2.26282e-05
5.78967e-05
2.35889e-05
5.87801e-05
2.41276e-05
5.97921e-05
2.42846e-05
6.09143e-05
2.40958e-05
6.21162e-05
2.35987e-05
6.33583e-05
2.28354e-05
6.45964e-05
2.18535e-05
6.57871e-05
2.07049e-05
6.68928e-05
1.94424e-05
6.78859e-05
1.81162e-05
6.87495e-05
1.67703e-05
6.94773e-05
1.54412e-05
1.41563e-05
7.00718e-05
5.9938e-05
3.26272e-06
6.01489e-05
8.70236e-06
6.04711e-05
1.29169e-05
6.08971e-05
1.61865e-05
6.14279e-05
1.86901e-05
6.20692e-05
2.05536e-05
6.28273e-05
2.18701e-05
6.37053e-05
2.27109e-05
6.46998e-05
2.31331e-05
6.57984e-05
2.3186e-05
6.69789e-05
2.29153e-05
6.82108e-05
2.23669e-05
6.94579e-05
2.15882e-05
7.06832e-05
2.06282e-05
7.18521e-05
1.95359e-05
7.29368e-05
1.83577e-05
7.39173e-05
1.71356e-05
7.47825e-05
1.59051e-05
7.55291e-05
1.46946e-05
1.35255e-05
7.61599e-05
6.52689e-05
3.14119e-06
6.55803e-05
8.39105e-06
6.60376e-05
1.24596e-05
6.66155e-05
1.56086e-05
6.73021e-05
1.80034e-05
6.80935e-05
1.97622e-05
6.89881e-05
2.09755e-05
6.99821e-05
2.17168e-05
7.10666e-05
2.20486e-05
7.22256e-05
2.2027e-05
7.34363e-05
2.17046e-05
7.46708e-05
2.11325e-05
7.58985e-05
2.03604e-05
7.70901e-05
1.94367e-05
7.82197e-05
1.84063e-05
7.92672e-05
1.73102e-05
8.02193e-05
1.61836e-05
8.10689e-05
1.50555e-05
8.18149e-05
1.39487e-05
1.28801e-05
8.24602e-05
7.1074e-05
2.97354e-06
7.15003e-05
7.96478e-06
7.21087e-05
1.18511e-05
7.28509e-05
1.48664e-05
7.36993e-05
1.7155e-05
7.46387e-05
1.88228e-05
7.56591e-05
1.99551e-05
7.67508e-05
2.06251e-05
7.79011e-05
2.08983e-05
7.90931e-05
2.0835e-05
8.03059e-05
2.04918e-05
8.15163e-05
1.99221e-05
8.27007e-05
1.91761e-05
8.38373e-05
1.83e-05
8.49081e-05
1.73355e-05
8.58997e-05
1.63186e-05
8.68039e-05
1.52794e-05
8.7617e-05
1.42424e-05
8.83393e-05
1.32263e-05
1.22451e-05
8.89743e-05
7.73995e-05
2.74844e-06
7.79615e-05
7.40272e-06
7.87398e-05
1.10728e-05
7.96582e-05
1.3948e-05
8.06718e-05
1.61415e-05
8.17537e-05
1.77409e-05
8.28861e-05
1.88226e-05
8.40547e-05
1.94565e-05
8.5245e-05
1.9708e-05
8.64415e-05
1.96386e-05
8.76274e-05
1.93059e-05
8.87855e-05
1.87639e-05
8.98999e-05
1.80616e-05
9.09567e-05
1.72433e-05
9.1945e-05
1.63472e-05
9.28576e-05
1.5406e-05
9.36906e-05
1.44464e-05
9.44432e-05
1.34898e-05
9.51171e-05
1.25524e-05
1.16463e-05
9.57159e-05
8.43041e-05
2.44077e-06
8.5033e-05
6.67381e-06
8.60031e-05
1.01027e-05
8.71083e-05
1.28427e-05
8.82874e-05
1.49624e-05
8.95035e-05
1.65248e-05
9.07328e-05
1.75933e-05
9.19582e-05
1.82311e-05
9.31657e-05
1.85005e-05
9.43426e-05
1.84616e-05
9.54775e-05
1.81711e-05
9.65597e-05
1.76817e-05
9.75805e-05
1.70408e-05
9.85332e-05
1.62906e-05
9.94133e-05
1.5467e-05
0.000100219
1.46002e-05
0.000100951
1.37149e-05
0.00010161
1.28304e-05
0.000102201
1.19616e-05
1.11196e-05
0.000102728
9.18699e-05
1.9925e-06
9.28065e-05
5.73721e-06
9.39884e-05
8.92074e-06
9.5286e-05
1.15452e-05
9.66257e-05
1.36227e-05
9.79633e-05
1.51873e-05
9.92702e-05
1.62863e-05
0.000100528
1.69733e-05
0.000101724
1.73041e-05
0.000102852
1.73344e-05
0.000103905
1.71178e-05
0.000104882
1.67047e-05
0.000105782
1.61407e-05
0.000106606
1.54663e-05
0.000107357
1.47163e-05
0.000108037
1.39198e-05
0.000108651
1.31009e-05
0.000109203
1.22784e-05
0.000109698
1.14669e-05
1.06775e-05
0.00011014
0.000100143
0.000101315
0.000102714
0.00010421
0.000105723
0.000107204
0.000108615
0.000109936
0.000111152
0.000112256
0.000113247
0.000114129
0.000114908
0.000115592
0.000116189
0.000116709
0.000117161
0.000117554
0.000117896
0.000118194
6.61334e-06
6.50889e-06
3.6681e-06
2.94525e-06
2.33826e-06
1.32984e-06
1.6879e-06
6.5036e-07
1.32848e-06
3.59416e-07
1.10182e-06
2.26661e-07
9.42817e-07
1.59007e-07
8.23269e-07
1.19548e-07
7.29456e-07
9.38123e-08
6.53745e-07
7.57115e-08
5.91464e-07
6.22813e-08
5.39619e-07
5.18446e-08
4.96282e-07
4.33374e-08
4.60267e-07
3.6015e-08
4.30966e-07
2.93004e-08
4.08262e-07
2.27043e-08
3.92383e-07
1.58791e-08
3.83783e-07
8.59956e-09
3.812e-07
2.58303e-09
-1.80975e-09
1.41059e-05
1.01392e-05
1.05405e-05
6.51072e-06
7.88043e-06
3.98987e-06
6.06583e-06
2.46496e-06
4.84476e-06
1.58049e-06
4.00183e-06
1.0696e-06
3.39519e-06
7.65648e-07
2.93998e-06
5.74752e-07
2.58617e-06
4.47623e-07
2.30351e-06
3.58373e-07
2.07307e-06
2.92725e-07
1.88265e-06
2.4226e-07
1.72434e-06
2.01643e-07
1.59316e-06
1.67203e-07
1.48628e-06
1.36178e-07
1.40264e-06
1.0634e-07
1.34251e-06
7.601e-08
1.30638e-06
4.4729e-08
1.29157e-06
1.73922e-08
2.8751e-10
1.95213e-05
1.22574e-05
1.65813e-05
9.45081e-06
1.3669e-05
6.9021e-06
1.12036e-05
4.93035e-06
9.26292e-06
3.5212e-06
7.77666e-06
2.55586e-06
6.63911e-06
1.9032e-06
5.75659e-06
1.45727e-06
5.05904e-06
1.14518e-06
4.49739e-06
9.20025e-07
4.03804e-06
7.52081e-07
3.65809e-06
6.22209e-07
3.3421e-06
5.17633e-07
3.07998e-06
4.2932e-07
2.86574e-06
3.50415e-07
2.69666e-06
2.75423e-07
2.57254e-06
2.00133e-07
2.49351e-06
1.23757e-07
2.45568e-06
5.52222e-08
1.34077e-08
2.42392e-05
1.36164e-05
2.20006e-05
1.16894e-05
1.93484e-05
9.55432e-06
1.67155e-05
7.56322e-06
1.4351e-05
5.88571e-06
1.23451e-05
4.56175e-06
1.06917e-05
3.55661e-06
9.34264e-06
2.80636e-06
8.2409e-06
2.24692e-06
7.33548e-06
1.82544e-06
6.58558e-06
1.50198e-06
5.96044e-06
1.24735e-06
5.4378e-06
1.04028e-06
5.00233e-06
8.64786e-07
4.64446e-06
7.08287e-07
4.35938e-06
5.60504e-07
4.14607e-06
4.13441e-07
4.00429e-06
2.65542e-07
3.92879e-06
1.3072e-07
4.62998e-08
2.87727e-05
1.45193e-05
2.71213e-05
1.33407e-05
2.49049e-05
1.17707e-05
2.24163e-05
1.00518e-05
1.9919e-05
8.38304e-06
1.75905e-05
6.89021e-06
1.55194e-05
5.6277e-06
1.37282e-05
4.5976e-06
1.22017e-05
3.77343e-06
1.09088e-05
3.11834e-06
9.81534e-06
2.59542e-06
8.89052e-06
2.17216e-06
8.10929e-06
1.82151e-06
7.45301e-06
1.52107e-06
6.90927e-06
1.25202e-06
6.4715e-06
9.98277e-07
6.13794e-06
7.47004e-07
5.90825e-06
4.95227e-07
5.77619e-06
2.62779e-07
1.10735e-07
3.33333e-05
1.5102e-05
3.21514e-05
1.45226e-05
3.03988e-05
1.35233e-05
2.82231e-05
1.22275e-05
2.58222e-05
1.0784e-05
2.33831e-05
9.32926e-06
2.10469e-05
7.96396e-06
1.88987e-05
6.74573e-06
1.69768e-05
5.69533e-06
1.52871e-05
4.80809e-06
1.38174e-05
4.06507e-06
1.25483e-05
3.44127e-06
1.14594e-05
2.9104e-06
1.05333e-05
2.44718e-06
9.75745e-06
2.02789e-06
9.12495e-06
1.63078e-06
8.63426e-06
1.23769e-06
8.28587e-06
8.43614e-07
8.07353e-06
4.75123e-07
2.22237e-07
3.80313e-05
1.54368e-05
3.72248e-05
1.53291e-05
3.59038e-05
1.48443e-05
3.41119e-05
1.40194e-05
3.19617e-05
1.29342e-05
2.95999e-05
1.16911e-05
2.71721e-05
1.03917e-05
2.47979e-05
9.11998e-06
2.25603e-05
7.93292e-06
2.05076e-05
6.86082e-06
1.86607e-05
5.91192e-06
1.70231e-05
5.07893e-06
1.55885e-05
4.34496e-06
1.43479e-05
3.68779e-06
1.32933e-05
3.08243e-06
1.24209e-05
2.50322e-06
1.17314e-05
1.92717e-06
1.12281e-05
1.34696e-06
1.09065e-05
7.96652e-07
4.00837e-07
4.2919e-05
1.55672e-05
4.24201e-05
1.5828e-05
4.14829e-05
1.57815e-05
4.00888e-05
1.54134e-05
3.82775e-05
1.47455e-05
3.61369e-05
1.38316e-05
3.3783e-05
1.27456e-05
3.13363e-05
1.15667e-05
2.89032e-05
1.0366e-05
2.6566e-05
9.19806e-06
2.43807e-05
8.09719e-06
2.23809e-05
7.07876e-06
2.05836e-05
6.14226e-06
1.89962e-05
5.27518e-06
1.76221e-05
4.45647e-06
1.64654e-05
3.65992e-06
1.55331e-05
2.85947e-06
1.48342e-05
2.04586e-06
1.43696e-05
1.26132e-06
6.7174e-07
4.80188e-05
1.55235e-05
4.7778e-05
1.60688e-05
4.71773e-05
1.63823e-05
4.61662e-05
1.64246e-05
4.4733e-05
1.61787e-05
4.29101e-05
1.56546e-05
4.07679e-05
1.48878e-05
3.84022e-05
1.39324e-05
3.59175e-05
1.28508e-05
3.34121e-05
1.17035e-05
3.09689e-05
1.05403e-05
2.86515e-05
9.39615e-06
2.65051e-05
8.28868e-06
2.45606e-05
7.21966e-06
2.28401e-05
6.17698e-06
2.13619e-05
5.13811e-06
2.01447e-05
4.0767e-06
1.92078e-05
2.98272e-06
1.85619e-05
1.90724e-06
1.06567e-06
5.33385e-05
1.53301e-05
5.33169e-05
1.60904e-05
5.30088e-05
1.66903e-05
5.23513e-05
1.7082e-05
5.13023e-05
1.72277e-05
4.98508e-05
1.71061e-05
4.80214e-05
1.67172e-05
4.58716e-05
1.60821e-05
4.34832e-05
1.52392e-05
4.095e-05
1.42367e-05
3.83659e-05
1.31245e-05
3.58159e-05
1.19461e-05
3.33719e-05
1.07327e-05
3.10914e-05
9.50012e-06
2.90208e-05
8.24757e-06
2.71993e-05
6.95963e-06
2.56633e-05
5.61267e-06
2.44486e-05
4.19745e-06
2.35813e-05
2.77448e-06
1.61855e-06
5.88769e-05
1.50094e-05
5.90406e-05
1.59267e-05
5.89843e-05
1.67466e-05
5.86438e-05
1.74226e-05
5.79625e-05
1.79091e-05
5.69011e-05
1.81675e-05
5.54467e-05
1.81717e-05
5.36166e-05
1.79122e-05
5.14585e-05
1.73973e-05
4.90438e-05
1.66514e-05
4.64594e-05
1.57089e-05
4.37973e-05
1.46082e-05
4.11469e-05
1.33831e-05
3.85898e-05
1.20573e-05
3.6198e-05
1.06393e-05
3.40362e-05
9.12147e-06
3.21644e-05
7.48446e-06
3.06408e-05
5.72104e-06
2.9514e-05
3.90131e-06
2.3701e-06
6.46272e-05
1.45834e-05
6.49446e-05
1.56093e-05
6.51006e-05
1.65906e-05
6.50359e-05
1.74872e-05
6.46904e-05
1.82546e-05
6.40102e-05
1.88477e-05
6.29563e-05
1.92255e-05
6.15125e-05
1.9356e-05
5.96896e-05
1.92202e-05
5.7527e-05
1.88139e-05
5.5089e-05
1.81469e-05
5.24582e-05
1.7239e-05
4.97273e-05
1.6114e-05
4.69922e-05
1.47923e-05
4.4347e-05
1.32846e-05
4.18815e-05
1.1587e-05
3.96828e-05
9.68315e-06
3.78364e-05
7.56739e-06
3.64194e-05
5.31836e-06
3.36084e-06
7.05801e-05
1.40751e-05
7.10199e-05
1.51695e-05
7.13485e-05
1.6262e-05
7.1515e-05
1.73208e-05
7.14624e-05
1.83072e-05
7.11327e-05
1.91774e-05
7.04729e-05
1.98853e-05
6.94427e-05
2.03862e-05
6.8022e-05
2.06409e-05
6.62159e-05
2.062e-05
6.40573e-05
2.03056e-05
6.16052e-05
1.96911e-05
5.89405e-05
1.87787e-05
5.61594e-05
1.75734e-05
5.33673e-05
1.60767e-05
5.06739e-05
1.42804e-05
4.81915e-05
1.21656e-05
4.60345e-05
9.72437e-06
4.43118e-05
7.04105e-06
4.62714e-06
7.6726e-05
1.35091e-05
7.72559e-05
1.46396e-05
7.77166e-05
1.58013e-05
7.80664e-05
1.6971e-05
7.82557e-05
1.81178e-05
7.82293e-05
1.92039e-05
7.79298e-05
2.01848e-05
7.73041e-05
2.10118e-05
7.63101e-05
2.16349e-05
7.49238e-05
2.20063e-05
7.31454e-05
2.2084e-05
7.10028e-05
2.18337e-05
6.85521e-05
2.12294e-05
6.58747e-05
2.02507e-05
6.30731e-05
1.88784e-05
6.02653e-05
1.70882e-05
5.7581e-05
1.48499e-05
5.51591e-05
1.21462e-05
5.31389e-05
9.06122e-06
6.19431e-06
8.3058e-05
1.29113e-05
8.36445e-05
1.40531e-05
8.41952e-05
1.52507e-05
8.46776e-05
1.64885e-05
8.50513e-05
1.77442e-05
8.52678e-05
1.89873e-05
8.5273e-05
2.01796e-05
8.50103e-05
2.12746e-05
8.44259e-05
2.22193e-05
8.34759e-05
2.29564e-05
8.21331e-05
2.34268e-05
8.03939e-05
2.35729e-05
7.8283e-05
2.33403e-05
7.58554e-05
2.26783e-05
7.31957e-05
2.15381e-05
7.04149e-05
1.98691e-05
6.76463e-05
1.76185e-05
6.50422e-05
1.47503e-05
6.27636e-05
1.13399e-05
8.06838e-06
8.95749e-05
1.23107e-05
9.01821e-05
1.34459e-05
9.07783e-05
1.46544e-05
9.13399e-05
1.5927e-05
9.18353e-05
1.72488e-05
9.22253e-05
1.85973e-05
9.2463e-05
1.99419e-05
9.24954e-05
2.12422e-05
9.22666e-05
2.24481e-05
9.1723e-05
2.35e-05
9.08195e-05
2.43303e-05
8.9527e-05
2.48654e-05
8.78396e-05
2.50277e-05
8.57804e-05
2.47375e-05
8.34048e-05
2.39136e-05
8.08017e-05
2.24722e-05
7.80909e-05
2.03293e-05
7.54205e-05
1.74207e-05
7.29563e-05
1.3804e-05
1.02287e-05
9.62901e-05
1.17365e-05
9.68813e-05
1.28548e-05
9.74776e-05
1.40581e-05
9.80624e-05
1.53422e-05
9.8613e-05
1.66982e-05
9.90996e-05
1.81107e-05
9.94849e-05
1.95566e-05
9.97243e-05
2.10028e-05
9.97672e-05
2.24052e-05
9.95596e-05
2.37076e-05
9.90492e-05
2.48407e-05
9.81913e-05
2.57233e-05
9.69564e-05
2.62627e-05
9.53372e-05
2.63567e-05
9.33556e-05
2.58951e-05
9.10667e-05
2.47611e-05
8.85601e-05
2.28359e-05
8.59589e-05
2.00219e-05
8.34115e-05
1.63514e-05
1.26243e-05
0.000103236
1.12276e-05
0.000103767
1.23243e-05
0.000104312
1.35129e-05
0.000104861
1.47931e-05
0.000105399
1.61605e-05
0.000105904
1.76053e-05
0.00010635
1.91109e-05
0.000106701
2.06513e-05
0.000106917
2.21893e-05
0.000106951
2.36744e-05
0.000106751
2.50406e-05
0.000106268
2.62058e-05
0.00010546
2.70708e-05
0.000104297
2.752e-05
0.000102769
2.74231e-05
0.000100893
2.6637e-05
9.87155e-05
2.50132e-05
9.63157e-05
2.24216e-05
9.38003e-05
1.88668e-05
1.51741e-05
0.000110567
1.08006e-05
0.000111012
1.18798e-05
0.000111469
1.30554e-05
0.000111933
1.43288e-05
0.000112395
1.56985e-05
0.000112842
1.71585e-05
0.000113257
1.86963e-05
0.000113616
2.02916e-05
0.000113893
2.1913e-05
0.000114051
2.35163e-05
0.00011405
2.50412e-05
0.000113846
2.64097e-05
0.000113394
2.75235e-05
0.00011265
2.82641e-05
0.00011158
2.84931e-05
0.000110162
2.80548e-05
0.000108391
2.67842e-05
0.000106284
2.4528e-05
0.000103894
2.12568e-05
1.77874e-05
0.000118481
0.000118787
0.000119111
0.000119451
0.000119805
0.000120164
0.000120522
0.000120862
0.000121168
0.000121414
0.000121567
0.000121588
0.000121432
0.000121047
0.000120377
0.000119367
0.000117959
0.000116096
0.000113722
)
;

boundaryField
{
    zeroGradient_plane
    {
        type            calculated;
        value           nonuniform List<scalar> 
80
(
1.35296e-06
4.56508e-06
7.52172e-06
1.00495e-05
1.21088e-05
1.3707e-05
1.48745e-05
1.56527e-05
1.60885e-05
1.62303e-05
1.61264e-05
1.58227e-05
1.5362e-05
1.47828e-05
1.41191e-05
1.33997e-05
1.26486e-05
1.18853e-05
1.11253e-05
1.03796e-05
1.05133e-05
1.15741e-05
1.27313e-05
1.39883e-05
1.53453e-05
1.67986e-05
1.83392e-05
1.99507e-05
2.16073e-05
2.32709e-05
2.48882e-05
2.63882e-05
2.76797e-05
2.86494e-05
2.91624e-05
2.90647e-05
2.81929e-05
2.63908e-05
2.36309e-05
2.07589e-05
3.8301e-07
1.28948e-06
2.44256e-06
3.8959e-06
5.71176e-06
7.96203e-06
1.07279e-05
1.40987e-05
1.8168e-05
2.30285e-05
2.87624e-05
3.54287e-05
4.30455e-05
5.15718e-05
6.08895e-05
7.0796e-05
8.10159e-05
9.12505e-05
0.000101281
0.00011075
-2.36817e-06
-7.54392e-06
-1.20034e-05
-1.5726e-05
-1.88137e-05
-2.1382e-05
-2.35331e-05
-2.5346e-05
-2.68723e-05
-2.81351e-05
-2.91287e-05
-2.98213e-05
-3.01577e-05
-3.00624e-05
-2.94419e-05
-2.81845e-05
-2.61564e-05
-2.31595e-05
-1.88069e-05
-1.2584e-05
)
;
    }
    inlet
    {
        type            calculated;
        value           nonuniform List<scalar> 
20
(
-1.99006e-05
-2.16598e-05
-2.35745e-05
-2.56584e-05
-2.79266e-05
-3.03953e-05
-3.30822e-05
-3.60066e-05
-3.91895e-05
-4.26538e-05
-4.64243e-05
-5.05282e-05
-5.49948e-05
-5.98562e-05
-6.51474e-05
-7.09063e-05
-7.71743e-05
-8.39964e-05
-9.14216e-05
-9.95031e-05
)
;
    }
    plate
    {
        type            calculated;
        value           uniform 0;
    }
    frontAndBack
    {
        type            empty;
        value           nonuniform 0();
    }
}


// ************************************************************************* //
