/*--------------------------------*- C++ -*----------------------------------*\
| =========                 |                                                 |
| \\      /  F ield         | OpenFOAM: The Open Source CFD Toolbox           |
|  \\    /   O peration     | Version:  v1906                                 |
|   \\  /    A nd           | Web:      www.OpenFOAM.com                      |
|    \\/     M anipulation  |                                                 |
\*---------------------------------------------------------------------------*/
FoamFile
{
    version     2.0;
    format      ascii;
    class       volVectorField;
    location    "0.4";
    object      U;
}
// * * * * * * * * * * * * * * * * * * * * * * * * * * * * * * * * * * * * * //

dimensions      [0 1 -1 0 0 0 0];


internalField   nonuniform List<vector> 
800
(
(0.997849 0.0243333 0)
(0.990618 0.083239 0)
(0.982737 0.143702 0)
(0.975055 0.20463 0)
(0.967509 0.266242 0)
(0.960154 0.329178 0)
(0.952949 0.394197 0)
(0.945841 0.461997 0)
(0.938762 0.533048 0)
(0.931618 0.607395 0)
(0.924285 0.684446 0)
(0.916591 0.762744 0)
(0.90828 0.839724 0)
(0.898973 0.91145 0)
(0.88818 0.972254 0)
(0.874875 1.01423 0)
(0.855891 1.02667 0)
(0.829467 0.994475 0)
(0.811038 0.890883 0)
(0.782415 0.663199 0)
(0.997942 0.0254536 0)
(0.990851 0.0848039 0)
(0.983026 0.145449 0)
(0.975415 0.206498 0)
(0.967967 0.268228 0)
(0.960741 0.33129 0)
(0.953708 0.396454 0)
(0.946836 0.46443 0)
(0.940083 0.535697 0)
(0.933406 0.610316 0)
(0.926753 0.687722 0)
(0.920067 0.766498 0)
(0.913283 0.84414 0)
(0.906334 0.916814 0)
(0.899231 0.979039 0)
(0.891963 1.02323 0)
(0.883661 1.03939 0)
(0.874696 1.01491 0)
(0.873588 0.930192 0)
(0.864689 0.748139 0)
(0.998121 0.0268851 0)
(0.991327 0.0868604 0)
(0.983646 0.14775 0)
(0.976206 0.208952 0)
(0.968983 0.27082 0)
(0.962052 0.334024 0)
(0.955412 0.399343 0)
(0.949072 0.467489 0)
(0.943058 0.538943 0)
(0.937425 0.613766 0)
(0.932272 0.691385 0)
(0.927769 0.770366 0)
(0.924185 0.848173 0)
(0.921934 0.920903 0)
(0.921652 0.982989 0)
(0.924108 1.02679 0)
(0.929543 1.04239 0)
(0.937756 1.01814 0)
(0.948011 0.940255 0)
(0.943645 0.792018 0)
(0.998353 0.0282112 0)
(0.992006 0.0888513 0)
(0.984602 0.149988 0)
(0.977468 0.21132 0)
(0.970628 0.273289 0)
(0.96419 0.336579 0)
(0.958198 0.401967 0)
(0.952728 0.470151 0)
(0.947905 0.541584 0)
(0.943925 0.61628 0)
(0.941086 0.693589 0)
(0.939821 0.771954 0)
(0.940729 0.848648 0)
(0.944579 0.919511 0)
(0.952239 0.978708 0)
(0.964361 1.01857 0)
(0.980591 1.0299 0)
(0.998844 1.00337 0)
(1.01399 0.931682 0)
(1.01312 0.813098 0)
(0.998609 0.0294529 0)
(0.992847 0.0908163 0)
(0.985892 0.152213 0)
(0.97923 0.21365 0)
(0.972964 0.275669 0)
(0.967248 0.338963 0)
(0.96219 0.404293 0)
(0.957955 0.472318 0)
(0.954786 0.543424 0)
(0.95304 0.617521 0)
(0.953211 0.693808 0)
(0.955949 0.770515 0)
(0.962039 0.844654 0)
(0.972304 0.911823 0)
(0.987361 0.96615 0)
(1.00714 1.00055 0)
(1.03015 1.00762 0)
(1.05295 0.981428 0)
(1.06965 0.919833 0)
(1.07184 0.827081 0)
(0.998871 0.0306281 0)
(0.993814 0.0927792 0)
(0.987503 0.154449 0)
(0.981513 0.215961 0)
(0.976042 0.277956 0)
(0.971303 0.341137 0)
(0.967485 0.406227 0)
(0.96485 0.473814 0)
(0.963767 0.544174 0)
(0.964736 0.617061 0)
(0.968397 0.691467 0)
(0.975499 0.765381 0)
(0.986806 0.835608 0)
(1.0029 0.897709 0)
(1.02382 0.946207 0)
(1.04867 0.975197 0)
(1.07509 0.979484 0)
(1.09924 0.956162 0)
(1.11616 0.906078 0)
(1.12084 0.834688 0)
(0.999123 0.031702 0)
(0.994872 0.0946701 0)
(0.989412 0.156607 0)
(0.984317 0.21814 0)
(0.979884 0.280006 0)
(0.976392 0.342906 0)
(0.974117 0.407504 0)
(0.973417 0.474283 0)
(0.974767 0.543369 0)
(0.978765 0.614324 0)
(0.986103 0.68592 0)
(0.997481 0.755958 0)
(1.01345 0.821188 0)
(1.03416 0.877429 0)
(1.05905 0.919985 0)
(1.08656 0.944407 0)
(1.11402 0.947535 0)
(1.13795 0.928553 0)
(1.15475 0.889582 0)
(1.16163 0.835533 0)
(0.999356 0.0326313 0)
(0.99599 0.0963888 0)
(0.991583 0.158553 0)
(0.987619 0.220025 0)
(0.984476 0.281616 0)
(0.982499 0.344014 0)
(0.982042 0.4078 0)
(0.983543 0.473323 0)
(0.987541 0.540534 0)
(0.994661 0.608798 0)
(1.00554 0.676709 0)
(1.0207 0.741995 0)
(1.04037 0.80156 0)
(1.06424 0.851745 0)
(1.09126 0.888851 0)
(1.11957 0.909852 0)
(1.14664 0.913151 0)
(1.16972 0.899112 0)
(1.18639 0.870109 0)
(1.19517 0.83004 0)
(0.999566 0.0333792 0)
(0.997138 0.0978275 0)
(0.993971 0.160135 0)
(0.991367 0.221423 0)
(0.989758 0.282553 0)
(0.989537 0.34418 0)
(0.991118 0.40678 0)
(0.99498 0.470552 0)
(1.00168 0.535273 0)
(1.01178 0.600139 0)
(1.02578 0.663657 0)
(1.04395 0.723628 0)
(1.06616 0.777301 0)
(1.09173 0.821709 0)
(1.11938 0.85417 0)
(1.14724 0.87284 0)
(1.17319 0.877157 0)
(1.1952 0.868008 0)
(1.21173 0.847543 0)
(1.222 0.818692 0)
(0.999751 0.0339122 0)
(0.998289 0.0988697 0)
(0.996519 0.161177 0)
(0.995482 0.222114 0)
(0.995619 0.282556 0)
(0.997346 0.343103 0)
(1.0011 0.404114 0)
(1.00735 0.465639 0)
(1.01662 0.527303 0)
(1.02935 0.5882 0)
(1.04584 0.646855 0)
(1.06609 0.701287 0)
(1.08968 0.749219 0)
(1.11574 0.788417 0)
(1.1429 0.817095 0)
(1.16955 0.834276 0)
(1.19401 0.839996 0)
(1.21487 0.835277 0)
(1.23117 0.821891 0)
(1.24252 0.801989 0)
(0.999914 0.0341981 0)
(0.999423 0.0993901 0)
(0.999164 0.161487 0)
(0.999857 0.221854 0)
(1.0019 0.281343 0)
(1.00569 0.340479 0)
(1.01164 0.399503 0)
(1.02019 0.45833 0)
(1.03174 0.516481 0)
(1.04658 0.573031 0)
(1.06481 0.626627 0)
(1.0862 0.675604 0)
(1.11015 0.718209 0)
(1.13572 0.752883 0)
(1.16167 0.778547 0)
(1.18666 0.794799 0)
(1.20946 0.801969 0)
(1.22911 0.801022 0)
(1.24502 0.793351 0)
(1.25702 0.780527 0)
(1.00006 0.0342055 0)
(1.00052 0.0992593 0)
(1.00184 0.160859 0)
(1.00437 0.220385 0)
(1.0084 0.278631 0)
(1.01428 0.336028 0)
(1.02235 0.392705 0)
(1.03295 0.448479 0)
(1.04636 0.502823 0)
(1.06271 0.554868 0)
(1.08191 0.603464 0)
(1.10359 0.64731 0)
(1.12708 0.685153 0)
(1.15147 0.715995 0)
(1.17573 0.739265 0)
(1.19882 0.754909 0)
(1.21987 0.763369 0)
(1.23823 0.765479 0)
(1.25356 0.762308 0)
(1.26578 0.755005 0)
(1.00019 0.0339035 0)
(1.00157 0.0983489 0)
(1.00448 0.159089 0)
(1.00888 0.217458 0)
(1.01491 0.274157 0)
(1.0228 0.329516 0)
(1.03278 0.383568 0)
(1.0451 0.436064 0)
(1.05988 0.48649 0)
(1.07711 0.534093 0)
(1.09657 0.577966 0)
(1.11782 0.617169 0)
(1.14022 0.650877 0)
(1.16297 0.67852 0)
(1.18525 0.699869 0)
(1.20631 0.71506 0)
(1.22554 0.724549 0)
(1.24253 0.729027 0)
(1.25706 0.729308 0)
(1.2691 0.726237 0)
(1.0003 0.0332605 0)
(1.00257 0.0965327 0)
(1.00704 0.155981 0)
(1.01328 0.212843 0)
(1.02122 0.267703 0)
(1.03095 0.320782 0)
(1.04257 0.372034 0)
(1.05619 0.421185 0)
(1.07181 0.467771 0)
(1.08932 0.51119 0)
(1.10844 0.550782 0)
(1.12871 0.585923 0)
(1.14956 0.61613 0)
(1.17037 0.641134 0)
(1.19052 0.660921 0)
(1.20948 0.675718 0)
(1.22683 0.685953 0)
(1.24232 0.692186 0)
(1.25583 0.695041 0)
(1.26735 0.695145 0)
(1.00042 0.0322395 0)
(1.00354 0.0936827 0)
(1.0095 0.151349 0)
(1.0175 0.206339 0)
(1.0272 0.259101 0)
(1.03852 0.309743 0)
(1.05143 0.358153 0)
(1.06591 0.404053 0)
(1.08187 0.447054 0)
(1.09913 0.486708 0)
(1.1174 0.522573 0)
(1.13627 0.554283 0)
(1.15528 0.581604 0)
(1.17397 0.604467 0)
(1.19189 0.622983 0)
(1.20869 0.637417 0)
(1.22411 0.648149 0)
(1.23799 0.655635 0)
(1.25027 0.660357 0)
(1.26096 0.662789 0)
(1.00054 0.0307925 0)
(1.0045 0.0896615 0)
(1.01192 0.14501 0)
(1.02157 0.197773 0)
(1.03283 0.248238 0)
(1.04545 0.296391 0)
(1.05927 0.342056 0)
(1.07418 0.384961 0)
(1.09002 0.424789 0)
(1.10658 0.461225 0)
(1.12361 0.493999 0)
(1.14078 0.522932 0)
(1.15776 0.547957 0)
(1.17421 0.569132 0)
(1.18985 0.586634 0)
(1.20446 0.600734 0)
(1.21787 0.611771 0)
(1.23002 0.620117 0)
(1.24086 0.626156 0)
(1.25044 0.630255 0)
(1.00069 0.028853 0)
(1.00556 0.0843261 0)
(1.01443 0.136817 0)
(1.02562 0.187045 0)
(1.03823 0.235098 0)
(1.05185 0.280822 0)
(1.06623 0.323972 0)
(1.08117 0.364274 0)
(1.09649 0.401465 0)
(1.112 0.435329 0)
(1.12749 0.465717 0)
(1.14274 0.492569 0)
(1.15753 0.515921 0)
(1.17165 0.535896 0)
(1.18495 0.552699 0)
(1.19731 0.566589 0)
(1.20865 0.577865 0)
(1.21894 0.586839 0)
(1.22819 0.593823 0)
(1.23645 0.599112 0)
(1.00093 0.0262469 0)
(1.00691 0.0774054 0)
(1.01726 0.126569 0)
(1.02988 0.174093 0)
(1.04361 0.219788 0)
(1.05794 0.263319 0)
(1.07255 0.304348 0)
(1.08721 0.342569 0)
(1.10173 0.377739 0)
(1.11597 0.409695 0)
(1.12978 0.438358 0)
(1.14302 0.463738 0)
(1.15558 0.485927 0)
(1.16736 0.505085 0)
(1.1783 0.521426 0)
(1.18836 0.535198 0)
(1.19752 0.546669 0)
(1.20581 0.556111 0)
(1.21326 0.563788 0)
(1.21991 0.569949 0)
(1.00141 0.0222312 0)
(1.00889 0.0676953 0)
(1.02076 0.112991 0)
(1.03464 0.157724 0)
(1.04923 0.201291 0)
(1.06396 0.243132 0)
(1.0785 0.282778 0)
(1.09258 0.319858 0)
(1.10604 0.354092 0)
(1.11879 0.385302 0)
(1.13074 0.413404 0)
(1.14187 0.438408 0)
(1.15215 0.460403 0)
(1.1616 0.479542 0)
(1.17022 0.496027 0)
(1.17806 0.510087 0)
(1.18514 0.52197 0)
(1.19152 0.531922 0)
(1.19725 0.540186 0)
(1.20237 0.546986 0)
(1.00205 0.0156249 0)
(1.01118 0.053972 0)
(1.02439 0.0948488 0)
(1.03927 0.13646 0)
(1.05459 0.177668 0)
(1.06974 0.217686 0)
(1.08436 0.255941 0)
(1.09816 0.292005 0)
(1.11095 0.325567 0)
(1.12264 0.356419 0)
(1.1332 0.384449 0)
(1.14263 0.409634 0)
(1.15098 0.432025 0)
(1.15833 0.451733 0)
(1.16476 0.468921 0)
(1.17037 0.483781 0)
(1.17525 0.496524 0)
(1.17949 0.50737 0)
(1.18317 0.516537 0)
(1.18638 0.524232 0)
(0.424053 0.234857 0)
(0.242661 0.0804817 0)
(0.141757 0.0267902 0)
(0.0956307 0.00935524 0)
(0.0730348 0.00376731 0)
(0.0595884 0.00189926 0)
(0.0504744 0.00118008 0)
(0.0437808 0.000827929 0)
(0.0385959 0.00061427 0)
(0.0344446 0.000468214 0)
(0.0310481 0.000362242 0)
(0.0282284 0.000282332 0)
(0.0258697 0.000219971 0)
(0.0238982 0.000169498 0)
(0.0222713 0.000126921 0)
(0.0209736 8.92821e-05 0)
(0.0200056 5.49266e-05 0)
(0.0194088 2.2426e-05 0)
(0.0191246 6.86564e-07 0)
(0.0192302 -1.47101e-05 0)
(0.7331 0.443156 0)
(0.56298 0.224737 0)
(0.414538 0.108176 0)
(0.312681 0.0536157 0)
(0.245718 0.0286096 0)
(0.200227 0.0167716 0)
(0.168078 0.0107343 0)
(0.144391 0.00733775 0)
(0.126237 0.0052473 0)
(0.111882 0.00386992 0)
(0.100262 0.00291477 0)
(0.0907019 0.00222431 0)
(0.082759 0.00170597 0)
(0.0761497 0.00130171 0)
(0.070702 0.000973146 0)
(0.0663348 0.00069397 0)
(0.0630257 0.000447773 0)
(0.060856 0.00022776 0)
(0.0596776 6.58858e-05 0)
(0.0596526 -2.60202e-05 0)
(0.88138 0.575215 0)
(0.767505 0.376095 0)
(0.636581 0.232346 0)
(0.520288 0.141438 0)
(0.427474 0.0872216 0)
(0.356122 0.0555739 0)
(0.301737 0.0369036 0)
(0.259904 0.0255028 0)
(0.227132 0.0182301 0)
(0.200952 0.0133853 0)
(0.17967 0.0100269 0)
(0.162134 0.00761233 0)
(0.147562 0.00581451 0)
(0.135433 0.00442683 0)
(0.125419 0.00331304 0)
(0.117347 0.002381 0)
(0.111153 0.00157141 0)
(0.106929 0.000864505 0)
(0.104456 0.000323228 0)
(0.103941 3.36459e-05 0)
(0.978682 0.658207 0)
(0.905713 0.496869 0)
(0.805587 0.355066 0)
(0.699178 0.245653 0)
(0.600441 0.167759 0)
(0.515232 0.114968 0)
(0.444486 0.0799761 0)
(0.386718 0.0567823 0)
(0.339658 0.0411863 0)
(0.301126 0.0304633 0)
(0.269326 0.0228963 0)
(0.242879 0.0174059 0)
(0.220772 0.0133035 0)
(0.20229 0.0101388 0)
(0.186962 0.00760856 0)
(0.174522 0.00550589 0)
(0.164855 0.00369504 0)
(0.158049 0.00212981 0)
(0.153832 0.000906719 0)
(0.152442 0.000242223 0)
(1.05204 0.712373 0)
(1.00555 0.585122 0)
(0.933709 0.459003 0)
(0.846656 0.34768 0)
(0.755375 0.257324 0)
(0.667936 0.188272 0)
(0.588889 0.137546 0)
(0.519926 0.10106 0)
(0.460929 0.0749871 0)
(0.410907 0.0562729 0)
(0.368611 0.0426776 0)
(0.332842 0.0326266 0)
(0.302592 0.0250314 0)
(0.277083 0.0191388 0)
(0.255764 0.0144222 0)
(0.238308 0.0105126 0)
(0.224563 0.00716286 0)
(0.214616 0.00428069 0)
(0.208166 0.00199654 0)
(0.205491 0.000702543 0)
(1.11027 0.748261 0)
(1.08132 0.648908 0)
(1.03195 0.542585 0)
(0.965566 0.43931 0)
(0.888496 0.346593 0)
(0.807485 0.268418 0)
(0.728074 0.205579 0)
(0.653938 0.156734 0)
(0.586969 0.119542 0)
(0.527745 0.0914941 0)
(0.476051 0.0703509 0)
(0.431296 0.054299 0)
(0.392782 0.041946 0)
(0.359867 0.0322507 0)
(0.33205 0.0244431 0)
(0.309015 0.0179612 0)
(0.290619 0.012417 0)
(0.276968 0.00765049 0)
(0.267771 0.00382562 0)
(0.263378 0.00155032 0)
(1.15757 0.77042 0)
(1.14067 0.693643 0)
(1.10822 0.606998 0)
(1.06029 0.516682 0)
(0.99948 0.428934 0)
(0.930021 0.348697 0)
(0.856572 0.278941 0)
(0.783257 0.220675 0)
(0.713146 0.17343 0)
(0.648161 0.135873 0)
(0.589264 0.106336 0)
(0.536742 0.0831624 0)
(0.490494 0.0648864 0)
(0.450247 0.050292 0)
(0.41572 0.0384076 0)
(0.386721 0.0284822 0)
(0.363196 0.0199752 0)
(0.345322 0.0126426 0)
(0.332864 0.00668269 0)
(0.32631 0.00296308 0)
(1.1959 0.781457 0)
(1.18756 0.722885 0)
(1.16771 0.654099 0)
(1.13502 0.578434 0)
(1.08983 0.500156 0)
(1.03404 0.423587 0)
(0.970661 0.352321 0)
(0.903141 0.288753 0)
(0.834723 0.23399 0)
(0.768053 0.188058 0)
(0.70503 0.150241 0)
(0.646847 0.11943 0)
(0.594153 0.0943936 0)
(0.547237 0.0739406 0)
(0.506213 0.057013 0)
(0.471157 0.0427257 0)
(0.442207 0.0304044 0)
(0.419694 0.0197209 0)
(0.4035 0.0109138 0)
(0.394349 0.00516785 0)
(1.22629 0.783119 0)
(1.22414 0.739239 0)
(1.21363 0.685968 0)
(1.19307 0.624779 0)
(1.16161 0.558148 0)
(1.11954 0.48917 0)
(1.06824 0.421042 0)
(1.00996 0.356549 0)
(0.94735 0.297717 0)
(0.883084 0.24568 0)
(0.819509 0.200751 0)
(0.75849 0.162608 0)
(0.701387 0.130528 0)
(0.649134 0.103586 0)
(0.602367 0.0808098 0)
(0.561568 0.0612904 0)
(0.527185 0.0442797 0)
(0.499799 0.0293902 0)
(0.479488 0.0169181 0)
(0.46734 0.00844692 0)
(1.24937 0.776716 0)
(1.25169 0.744687 0)
(1.24808 0.704557 0)
(1.23692 0.656694 0)
(1.2169 0.602244 0)
(1.18736 0.543062 0)
(1.14848 0.48148 0)
(1.10127 0.419961 0)
(1.04743 0.360757 0)
(0.989107 0.305622 0)
(0.928561 0.255674 0)
(0.867929 0.211391 0)
(0.809058 0.172708 0)
(0.753451 0.139164 0)
(0.702301 0.110064 0)
(0.656578 0.0846215 0)
(0.617143 0.0621156 0)
(0.584926 0.0421561 0)
(0.560278 0.0251323 0)
(0.544817 0.013139 0)
(1.2656 0.763387 0)
(1.27107 0.740862 0)
(1.27247 0.711648 0)
(1.26841 0.675511 0)
(1.25752 0.632729 0)
(1.23873 0.584158 0)
(1.21146 0.531194 0)
(1.17575 0.475629 0)
(1.13233 0.419413 0)
(1.08253 0.364405 0)
(1.02812 0.312139 0)
(0.971081 0.263687 0)
(0.913404 0.219613 0)
(0.856943 0.18001 0)
(0.803349 0.144603 0)
(0.754074 0.112879 0)
(0.710442 0.0842681 0)
(0.673804 0.0584619 0)
(0.644841 0.0359988 0)
(0.625892 0.019632 0)
(1.27541 0.744232 0)
(1.28296 0.729249 0)
(1.28785 0.708933 0)
(1.28897 0.682769 0)
(1.28508 0.650527 0)
(1.27503 0.612371 0)
(1.25787 0.568909 0)
(1.23302 0.521183 0)
(1.20042 0.470576 0)
(1.16058 0.418647 0)
(1.11458 0.366941 0)
(1.0639 0.316796 0)
(1.01032 0.269212 0)
(0.955758 0.22478 0)
(0.902097 0.183689 0)
(0.851158 0.145803 0)
(0.804692 0.110815 0)
(0.764476 0.0785991 0)
(0.731548 0.0499137 0)
(0.709151 0.0283417 0)
(1.27919 0.720375 0)
(1.28796 0.711288 0)
(1.29511 0.698082 0)
(1.2998 0.68015 0)
(1.30102 0.657013 0)
(1.2977 0.628414 0)
(1.2888 0.594393 0)
(1.27344 0.555347 0)
(1.25105 0.512028 0)
(1.22149 0.465488 0)
(1.1851 0.416965 0)
(1.14275 0.367731 0)
(1.09574 0.318938 0)
(1.04572 0.271488 0)
(0.994554 0.225958 0)
(0.944208 0.182599 0)
(0.896724 0.141434 0)
(0.854231 0.1026 0)
(0.818074 0.0671507 0)
(0.792562 0.0396719 0)
(1.2774 0.693001 0)
(1.28666 0.688435 0)
(1.29507 0.680785 0)
(1.30199 0.66946 0)
(1.30666 0.653894 0)
(1.30818 0.633615 0)
(1.3056 0.608313 0)
(1.29797 0.577912 0)
(1.28446 0.542617 0)
(1.2645 0.50293 0)
(1.23787 0.45962 0)
(1.20482 0.413639 0)
(1.16605 0.36601 0)
(1.12275 0.317694 0)
(1.07647 0.269476 0)
(1.02909 0.2219 0)
(0.982706 0.175308 0)
(0.939627 0.130131 0)
(0.901384 0.0877697 0)
(0.873446 0.0539541 0)
(1.27053 0.663399 0)
(1.2797 0.662224 0)
(1.28852 0.658813 0)
(1.29657 0.652639 0)
(1.30327 0.643145 0)
(1.30795 0.629788 0)
(1.3098 0.612078 0)
(1.30796 0.589644 0)
(1.30155 0.562291 0)
(1.2898 0.530047 0)
(1.27215 0.493188 0)
(1.24833 0.452223 0)
(1.21851 0.40784 0)
(1.18331 0.360822 0)
(1.14382 0.311936 0)
(1.10155 0.261847 0)
(1.05843 0.211112 0)
(1.01669 0.160422 0)
(0.977858 0.111528 0)
(0.948565 0.0713723 0)
(1.25918 0.632862 0)
(1.26775 0.634178 0)
(1.2763 0.633926 0)
(1.28455 0.631661 0)
(1.29211 0.626886 0)
(1.29848 0.619062 0)
(1.30303 0.607641 0)
(1.30507 0.592104 0)
(1.30381 0.572006 0)
(1.29846 0.547033 0)
(1.28829 0.517042 0)
(1.27276 0.482095 0)
(1.2516 0.442461 0)
(1.22494 0.398578 0)
(1.19332 0.350996 0)
(1.15777 0.300304 0)
(1.11982 0.247112 0)
(1.08135 0.192266 0)
(1.04362 0.137812 0)
(1.01438 0.0918656 0)
(1.24406 0.603145 0)
(1.25165 0.606246 0)
(1.25939 0.608277 0)
(1.2671 0.608875 0)
(1.27453 0.607614 0)
(1.28134 0.604008 0)
(1.2871 0.597522 0)
(1.29126 0.58759 0)
(1.29321 0.573648 0)
(1.29225 0.555174 0)
(1.28768 0.531728 0)
(1.27885 0.503005 0)
(1.26526 0.468865 0)
(1.24665 0.429347 0)
(1.2231 0.384659 0)
(1.19511 0.335154 0)
(1.16366 0.281329 0)
(1.13009 0.224046 0)
(1.09513 0.165536 0)
(1.06753 0.114939 0)
(1.22608 0.575028 0)
(1.23229 0.579441 0)
(1.23872 0.583156 0)
(1.24528 0.585872 0)
(1.2518 0.587231 0)
(1.25807 0.586802 0)
(1.26381 0.584088 0)
(1.26864 0.578532 0)
(1.27212 0.569528 0)
(1.27371 0.556451 0)
(1.27281 0.538686 0)
(1.26882 0.515676 0)
(1.26117 0.486965 0)
(1.24941 0.45224 0)
(1.23329 0.411364 0)
(1.21285 0.364388 0)
(1.1885 0.311603 0)
(1.16085 0.253761 0)
(1.13002 0.193139 0)
(1.10559 0.139645 0)
(1.20713 0.552767 0)
(1.21191 0.558011 0)
(1.21686 0.562754 0)
(1.22192 0.566749 0)
(1.22702 0.56969 0)
(1.23203 0.571207 0)
(1.23678 0.570859 0)
(1.24108 0.568135 0)
(1.24463 0.562457 0)
(1.24708 0.553191 0)
(1.24803 0.53967 0)
(1.24699 0.521224 0)
(1.24347 0.497223 0)
(1.23697 0.467124 0)
(1.22705 0.430522 0)
(1.2134 0.387196 0)
(1.19589 0.337191 0)
(1.17438 0.281036 0)
(1.14834 0.220837 0)
(1.12811 0.166948 0)
(1.18931 0.530924 0)
(1.19229 0.537178 0)
(1.19545 0.543094 0)
(1.1988 0.548462 0)
(1.2023 0.553019 0)
(1.20591 0.556442 0)
(1.20954 0.558344 0)
(1.21309 0.558265 0)
(1.21639 0.555671 0)
(1.21922 0.549953 0)
(1.22129 0.540439 0)
(1.22225 0.52641 0)
(1.22166 0.507136 0)
(1.21903 0.481913 0)
(1.2138 0.450125 0)
(1.20543 0.411306 0)
(1.19332 0.365256 0)
(1.1766 0.312295 0)
(1.15437 0.254467 0)
(1.13766 0.202248 0)
)
;

boundaryField
{
    zeroGradient_plane
    {
        type            zeroGradient;
    }
    inlet
    {
        type            fixedValue;
        value           uniform (1 0 0);
    }
    plate
    {
        type            noSlip;
    }
    frontAndBack
    {
        type            empty;
    }
}


// ************************************************************************* //
