/*--------------------------------*- C++ -*----------------------------------*\
| =========                 |                                                 |
| \\      /  F ield         | OpenFOAM: The Open Source CFD Toolbox           |
|  \\    /   O peration     | Version:  v1906                                 |
|   \\  /    A nd           | Web:      www.OpenFOAM.com                      |
|    \\/     M anipulation  |                                                 |
\*---------------------------------------------------------------------------*/
FoamFile
{
    version     2.0;
    format      ascii;
    class       volScalarField;
    location    "0.1";
    object      p;
}
// * * * * * * * * * * * * * * * * * * * * * * * * * * * * * * * * * * * * * //

dimensions      [0 2 -2 0 0 0 0];


internalField   nonuniform List<scalar> 
4800
(
8.20089e-12
0.000186858
0.000185325
8.09741e-05
0.000218083
0.000159097
0.000143459
0.000265571
0.000242275
0.000219172
0.000325394
0.00039582
0.000382521
0.000429684
0.000552981
0.000625405
0.000630659
0.000642691
0.000678789
0.000694475
1.59054e-05
0.000169127
0.000182243
8.55299e-05
0.000208756
0.000163386
0.00013908
0.000264849
0.000242446
0.000217753
0.000321436
0.000389121
0.000376104
0.000415189
0.000515433
0.000562198
0.000534581
0.000517132
0.000544834
0.000568768
2.27906e-05
0.000160357
0.000182726
8.59239e-05
0.000201415
0.000173051
0.000132504
0.00025726
0.000248596
0.000213708
0.000309378
0.000382248
0.000362232
0.000379135
0.000464012
0.000506667
0.000475227
0.000451802
0.000483165
0.000521632
3.85515e-05
0.000141962
0.000176967
9.64026e-05
0.000180458
0.000181154
0.00013116
0.000234687
0.000257107
0.000209205
0.000285709
0.000369217
0.000348561
0.000339195
0.000408053
0.000459741
0.000435372
0.000399922
0.000416371
0.000455723
4.89152e-05
0.000130339
0.000171931
0.000102372
0.000165855
0.0001877
0.000132548
0.000214083
0.000259163
0.000212125
0.000255804
0.000341825
0.000335818
0.000308708
0.000352061
0.000406202
0.000396157
0.000355238
0.000351832
0.000384187
6.13572e-05
0.000116784
0.000160505
0.000113748
0.000149073
0.000183196
0.000144794
0.000190727
0.0002464
0.00021651
0.000231005
0.000302935
0.000315875
0.000285079
0.000299919
0.000345477
0.000351467
0.00031835
0.000301108
0.000318092
7.0807e-05
0.000114123
0.000149845
0.000119088
0.00013775
0.000175186
0.000149771
0.000171835
0.000225973
0.000216758
0.000212189
0.00025877
0.000283786
0.000264351
0.000260442
0.00028789
0.000300831
0.000280475
0.000258742
0.000260994
7.81459e-05
0.000106743
0.000136924
0.000122374
0.000130192
0.000160809
0.000151388
0.000161286
0.000200828
0.000204799
0.0001961
0.000221845
0.000247415
0.000238666
0.000225527
0.000235024
0.00024787
0.000241189
0.000223362
0.000214271
8.26131e-05
0.000100851
0.000125062
0.000120802
0.000123345
0.00014651
0.000147608
0.000150116
0.000174886
0.000185761
0.00018055
0.000190416
0.000206429
0.000204479
0.000193847
0.000194315
0.000201045
0.000197157
0.000182048
0.000169093
8.45691e-05
9.60215e-05
0.000113938
0.000115696
0.000117088
0.000132253
0.00013728
0.000138259
0.000152287
0.000162491
0.000159822
0.000160731
0.000168592
0.000169879
0.000162509
0.000156344
0.00015436
0.000150348
0.000141281
0.000131101
8.42623e-05
9.19369e-05
0.000103868
0.000108011
0.000109197
0.000118129
0.000123616
0.000124452
0.000130681
0.000136747
0.000135497
0.00013344
0.000134948
0.000133964
0.000127119
0.000119207
0.000114045
0.000109415
0.000101858
9.17103e-05
8.18598e-05
8.65549e-05
9.43275e-05
9.8448e-05
9.95683e-05
0.00010413
0.000107805
0.000107972
0.000109401
0.000111384
0.000109672
0.000105698
0.000102471
9.86921e-05
9.23728e-05
8.45982e-05
7.71855e-05
6.99552e-05
6.17513e-05
5.2573e-05
7.76134e-05
8.03657e-05
8.48796e-05
8.77507e-05
8.82816e-05
8.97066e-05
9.08195e-05
8.96917e-05
8.80894e-05
8.64782e-05
8.29544e-05
7.75159e-05
7.17869e-05
6.58371e-05
5.86597e-05
5.02699e-05
4.16347e-05
3.32727e-05
2.48879e-05
1.61242e-05
7.19329e-05
7.32242e-05
7.52242e-05
7.63123e-05
7.56833e-05
7.47195e-05
7.3299e-05
7.03938e-05
6.64829e-05
6.20665e-05
5.65648e-05
4.97975e-05
4.23789e-05
3.46185e-05
2.63064e-05
1.74241e-05
8.32976e-06
-6.93049e-07
-9.66415e-06
-1.86724e-05
6.50418e-05
6.52008e-05
6.52193e-05
6.44225e-05
6.22856e-05
5.93063e-05
5.56074e-05
5.07808e-05
4.49277e-05
3.8376e-05
3.10726e-05
2.2946e-05
1.42478e-05
5.25075e-06
-3.98713e-06
-1.34545e-05
-2.30219e-05
-3.25124e-05
-4.18211e-05
-5.09179e-05
5.72935e-05
5.65252e-05
5.49377e-05
5.23711e-05
4.8607e-05
4.38211e-05
3.81485e-05
3.15017e-05
2.39416e-05
1.56867e-05
6.8586e-06
-2.4873e-06
-1.22065e-05
-2.21214e-05
-3.21212e-05
-4.21366e-05
-5.2077e-05
-6.18351e-05
-7.13309e-05
-8.05232e-05
4.90999e-05
4.75596e-05
4.46533e-05
4.05195e-05
3.51834e-05
2.87696e-05
2.14102e-05
1.31614e-05
4.12181e-06
-5.52777e-06
-1.5613e-05
-2.60108e-05
-3.65982e-05
-4.72462e-05
-5.78462e-05
-6.83144e-05
-7.85749e-05
-8.85539e-05
-9.81889e-05
-0.000107437
4.10224e-05
3.88516e-05
3.48708e-05
2.94077e-05
2.26617e-05
1.48162e-05
6.04182e-06
-3.53191e-06
-1.37741e-05
-2.45207e-05
-3.55998e-05
-4.68601e-05
-5.81706e-05
-6.94155e-05
-8.04972e-05
-9.13368e-05
-0.00010187
-0.000112044
-0.000121817
-0.00013116
3.36038e-05
3.1026e-05
2.63166e-05
1.99122e-05
1.21278e-05
3.22406e-06
-6.58348e-06
-1.71313e-05
-2.82713e-05
-3.98359e-05
-5.1646e-05
-6.35384e-05
-7.53775e-05
-8.70525e-05
-9.84717e-05
-0.00010956
-0.000120259
-0.000130526
-0.000140331
-0.000149657
2.70709e-05
2.38829e-05
1.82015e-05
1.059e-05
1.53482e-06
-8.57636e-06
-1.9497e-05
-3.10872e-05
-4.32122e-05
-5.56899e-05
-6.83196e-05
-8.09285e-05
-9.33872e-05
-0.000105598
-0.000117483
-0.000128974
-0.000140019
-0.000150579
-0.000160628
-0.000170154
0.000688045
0.000704223
0.000725091
0.000734729
0.000691779
0.000566323
0.000396972
0.000256139
0.000169694
0.000105093
4.97857e-05
3.5571e-05
6.2469e-05
7.33898e-05
4.01428e-05
-9.50227e-06
-5.94802e-05
-0.000114908
-0.000161933
-0.000182852
-0.000187143
-0.0001964
-0.000222636
-0.000265057
-0.000308856
-0.000336168
-0.000348734
-0.000365871
-0.000396514
-0.000430195
-0.00045675
-0.000479017
-0.000503722
-0.000531337
-0.000558524
-0.000584183
-0.000609905
-0.000637227
-0.000666453
-0.000697153
-0.000728569
-0.000759654
-0.000789265
-0.000816547
-0.000841185
-0.000863387
-0.0008837
-0.000902792
-0.000921291
-0.000939691
-0.00095832
-0.00097736
-0.000996886
-0.0010169
-0.00103738
-0.00105829
-0.00107956
-0.00110117
-0.00112308
-0.00114526
-0.00116769
-0.00119036
-0.00121324
-0.00123634
-0.00125964
-0.00128315
-0.00130684
-0.00133073
-0.00135481
-0.00137908
-0.00140353
-0.00142817
-0.001453
-0.001478
-0.0015032
-0.00152858
-0.00155415
-0.0015799
-0.00160585
-0.00163198
-0.0016583
-0.00168481
-0.00171152
-0.00173842
-0.00176551
-0.00179281
-0.0018203
-0.00184798
-0.00187587
-0.00190397
-0.00193226
-0.00196076
-0.00198947
-0.00201839
-0.00204752
-0.00207686
-0.00210641
-0.00213618
-0.00216617
-0.00219637
-0.0022268
-0.00225745
-0.00228832
-0.00231942
-0.00235075
-0.0023823
-0.00241409
-0.00244611
-0.00247836
-0.00251085
-0.00254358
-0.00257655
-0.00260976
-0.00264322
-0.00267692
-0.00271087
-0.00274507
-0.00277952
-0.00281422
-0.00284918
-0.0028844
-0.00291987
-0.00295561
-0.00299161
-0.00302787
-0.00306441
-0.00310121
-0.00313828
-0.00317562
-0.00321325
-0.00325114
-0.00328932
-0.00332778
-0.00336652
-0.00340555
-0.00344486
-0.00348447
-0.00352437
-0.00356456
-0.00360504
-0.00364583
-0.00368692
-0.00372831
-0.00377
-0.00381201
-0.00385432
-0.00389694
-0.00393988
-0.00398314
-0.00402671
-0.00407061
-0.00411483
-0.00415937
-0.00420425
-0.00424945
-0.00429499
-0.00434087
-0.00438708
-0.00443363
-0.00448053
-0.00452777
-0.00457536
-0.00462331
-0.0046716
-0.00472026
-0.00476927
-0.00481864
-0.00486838
-0.00491848
-0.00496895
-0.0050198
-0.00507102
-0.00512262
-0.0051746
-0.00522696
-0.00527971
-0.00533285
-0.00538638
-0.0054403
-0.00549463
-0.00554935
-0.00560448
-0.00566001
-0.00571595
-0.00577231
-0.00582908
-0.00588627
-0.00594388
-0.00600192
-0.00606038
-0.00611928
-0.00617861
-0.00623838
-0.00629859
-0.00635924
-0.00642034
-0.00648189
-0.0065439
-0.00660635
-0.00666928
-0.00673265
-0.00679654
-0.0068608
-0.0069257
-0.0069908
-0.00705682
-0.00712268
-0.0071899
-0.00725653
-0.0073248
-0.00739259
-0.00746121
-0.00753087
-0.00759903
-0.00766998
-0.00773778
-0.0078057
-0.00787113
-0.00792885
-0.00797854
0.000558659
0.000541005
0.000543803
0.000561383
0.000552117
0.000479336
0.00036129
0.000257203
0.00018814
0.000118609
4.33148e-05
1.37952e-05
3.5268e-05
4.73119e-05
2.34667e-05
-1.35392e-05
-5.75693e-05
-0.000114481
-0.000165902
-0.000192367
-0.000199632
-0.000204838
-0.000223935
-0.00026472
-0.000312905
-0.000343192
-0.000354068
-0.000368551
-0.000398833
-0.00043349
-0.000460354
-0.000482128
-0.000506402
-0.000533932
-0.000561075
-0.000586523
-0.00061192
-0.000638876
-0.000667678
-0.000697866
-0.000728707
-0.000759222
-0.000788347
-0.000815287
-0.000839754
-0.000861943
-0.00088236
-0.000901623
-0.000920314
-0.000938897
-0.000957684
-0.000976854
-0.000996483
-0.00101658
-0.00103713
-0.00105808
-0.0010794
-0.00110103
-0.00112297
-0.00114517
-0.00116761
-0.00119029
-0.00121319
-0.00123629
-0.0012596
-0.00128311
-0.00130681
-0.00133071
-0.00135479
-0.00137906
-0.00140352
-0.00142816
-0.00145298
-0.00147799
-0.00150319
-0.00152857
-0.00155414
-0.0015799
-0.00160584
-0.00163197
-0.0016583
-0.00168481
-0.00171152
-0.00173842
-0.00176551
-0.0017928
-0.00182029
-0.00184798
-0.00187587
-0.00190397
-0.00193226
-0.00196076
-0.00198947
-0.00201839
-0.00204752
-0.00207686
-0.00210641
-0.00213618
-0.00216617
-0.00219637
-0.0022268
-0.00225745
-0.00228832
-0.00231942
-0.00235075
-0.0023823
-0.00241409
-0.00244611
-0.00247836
-0.00251085
-0.00254358
-0.00257655
-0.00260976
-0.00264322
-0.00267692
-0.00271087
-0.00274507
-0.00277952
-0.00281422
-0.00284918
-0.0028844
-0.00291987
-0.00295561
-0.00299161
-0.00302787
-0.00306441
-0.00310121
-0.00313828
-0.00317562
-0.00321325
-0.00325114
-0.00328932
-0.00332778
-0.00336652
-0.00340555
-0.00344486
-0.00348447
-0.00352437
-0.00356456
-0.00360504
-0.00364583
-0.00368692
-0.00372831
-0.00377
-0.00381201
-0.00385432
-0.00389694
-0.00393988
-0.00398314
-0.00402671
-0.00407061
-0.00411483
-0.00415937
-0.00420425
-0.00424945
-0.00429499
-0.00434087
-0.00438708
-0.00443363
-0.00448053
-0.00452777
-0.00457536
-0.00462331
-0.0046716
-0.00472026
-0.00476927
-0.00481864
-0.00486838
-0.00491848
-0.00496895
-0.0050198
-0.00507102
-0.00512262
-0.0051746
-0.00522696
-0.00527971
-0.00533285
-0.00538638
-0.0054403
-0.00549463
-0.00554935
-0.00560448
-0.00566001
-0.00571595
-0.00577231
-0.00582908
-0.00588627
-0.00594388
-0.00600192
-0.00606038
-0.00611928
-0.00617861
-0.00623838
-0.00629859
-0.00635924
-0.00642034
-0.00648189
-0.0065439
-0.00660635
-0.00666928
-0.00673265
-0.00679654
-0.0068608
-0.0069257
-0.0069908
-0.00705683
-0.00712268
-0.00718991
-0.00725652
-0.0073248
-0.00739258
-0.00746121
-0.00753088
-0.00759903
-0.00766999
-0.00773778
-0.00780573
-0.00787114
-0.00792896
-0.00797874
0.000516555
0.000488458
0.000480867
0.000497999
0.000501443
0.000454111
0.000362277
0.000278532
0.00022707
0.000163015
7.23335e-05
1.89154e-05
2.49477e-05
3.26681e-05
1.44425e-05
-9.05334e-06
-4.14528e-05
-9.63573e-05
-0.000153896
-0.000190157
-0.000204936
-0.000208144
-0.000217692
-0.000253527
-0.000306531
-0.000343119
-0.000353997
-0.000364884
-0.000393972
-0.00043029
-0.000458468
-0.00047987
-0.000503238
-0.000530459
-0.000557953
-0.000584023
-0.000609937
-0.000636906
-0.000664862
-0.000693267
-0.000721714
-0.000749805
-0.000777052
-0.000803034
-0.000827555
-0.000850662
-0.000872567
-0.000893574
-0.000914001
-0.000934134
-0.000954203
-0.000974369
-0.000994734
-0.00101536
-0.00103627
-0.00105747
-0.00107895
-0.0011007
-0.00112272
-0.00114497
-0.00116746
-0.00119016
-0.00121308
-0.00123621
-0.00125953
-0.00128305
-0.00130677
-0.00133067
-0.00135475
-0.00137903
-0.00140349
-0.00142813
-0.00145296
-0.00147798
-0.00150318
-0.00152856
-0.00155413
-0.00157989
-0.00160583
-0.00163197
-0.00165829
-0.00168481
-0.00171151
-0.00173841
-0.00176551
-0.0017928
-0.00182029
-0.00184798
-0.00187587
-0.00190396
-0.00193226
-0.00196076
-0.00198947
-0.00201839
-0.00204752
-0.00207686
-0.00210641
-0.00213618
-0.00216617
-0.00219637
-0.0022268
-0.00225745
-0.00228832
-0.00231942
-0.00235075
-0.0023823
-0.00241409
-0.00244611
-0.00247836
-0.00251085
-0.00254358
-0.00257655
-0.00260976
-0.00264322
-0.00267692
-0.00271087
-0.00274507
-0.00277952
-0.00281422
-0.00284918
-0.0028844
-0.00291987
-0.00295561
-0.00299161
-0.00302787
-0.00306441
-0.00310121
-0.00313828
-0.00317562
-0.00321325
-0.00325114
-0.00328932
-0.00332778
-0.00336652
-0.00340555
-0.00344486
-0.00348447
-0.00352437
-0.00356456
-0.00360504
-0.00364583
-0.00368692
-0.00372831
-0.00377
-0.00381201
-0.00385432
-0.00389694
-0.00393988
-0.00398314
-0.00402671
-0.00407061
-0.00411483
-0.00415937
-0.00420425
-0.00424945
-0.00429499
-0.00434087
-0.00438708
-0.00443363
-0.00448053
-0.00452777
-0.00457536
-0.00462331
-0.0046716
-0.00472026
-0.00476927
-0.00481864
-0.00486838
-0.00491848
-0.00496895
-0.0050198
-0.00507102
-0.00512262
-0.0051746
-0.00522696
-0.00527971
-0.00533285
-0.00538638
-0.0054403
-0.00549463
-0.00554935
-0.00560448
-0.00566001
-0.00571595
-0.00577231
-0.00582908
-0.00588627
-0.00594388
-0.00600192
-0.00606038
-0.00611928
-0.00617861
-0.00623838
-0.00629859
-0.00635924
-0.00642034
-0.00648189
-0.0065439
-0.00660635
-0.00666928
-0.00673265
-0.00679654
-0.0068608
-0.0069257
-0.0069908
-0.00705683
-0.00712268
-0.00718991
-0.00725652
-0.0073248
-0.00739258
-0.00746122
-0.00753088
-0.00759903
-0.00767001
-0.00773778
-0.00780575
-0.00787117
-0.00792902
-0.00797886
0.000461164
0.000429497
0.000403553
0.000408632
0.00041567
0.000384983
0.000311991
0.000236418
0.000194101
0.000153643
7.70808e-05
1.01994e-05
-1.39415e-06
2.19648e-06
-1.60329e-05
-3.6471e-05
-5.62225e-05
-9.85189e-05
-0.000154503
-0.000197377
-0.000220605
-0.00022835
-0.000232663
-0.000257853
-0.000307633
-0.000350631
-0.000366533
-0.000374884
-0.000399476
-0.000435087
-0.000464854
-0.000486664
-0.000509081
-0.000535563
-0.000562954
-0.000588939
-0.000614397
-0.000640627
-0.000667705
-0.000695144
-0.000722592
-0.000749754
-0.000776239
-0.000801676
-0.000825869
-0.000848833
-0.000870739
-0.00089184
-0.000912415
-0.000932724
-0.000952974
-0.000973316
-0.000993846
-0.00101462
-0.00103566
-0.00105696
-0.00107854
-0.00110037
-0.00112244
-0.00114474
-0.00116727
-0.00119001
-0.00121296
-0.0012361
-0.00125945
-0.00128298
-0.0013067
-0.00133062
-0.00135471
-0.00137899
-0.00140346
-0.00142811
-0.00145294
-0.00147796
-0.00150316
-0.00152855
-0.00155412
-0.00157988
-0.00160583
-0.00163196
-0.00165829
-0.0016848
-0.00171151
-0.00173841
-0.00176551
-0.0017928
-0.00182029
-0.00184798
-0.00187587
-0.00190397
-0.00193226
-0.00196076
-0.00198947
-0.00201839
-0.00204752
-0.00207686
-0.00210641
-0.00213618
-0.00216617
-0.00219638
-0.0022268
-0.00225745
-0.00228832
-0.00231942
-0.00235075
-0.0023823
-0.00241409
-0.00244611
-0.00247836
-0.00251085
-0.00254358
-0.00257655
-0.00260976
-0.00264322
-0.00267692
-0.00271087
-0.00274507
-0.00277952
-0.00281422
-0.00284918
-0.0028844
-0.00291987
-0.00295561
-0.00299161
-0.00302787
-0.00306441
-0.00310121
-0.00313828
-0.00317562
-0.00321325
-0.00325114
-0.00328932
-0.00332778
-0.00336652
-0.00340555
-0.00344486
-0.00348447
-0.00352437
-0.00356456
-0.00360504
-0.00364583
-0.00368692
-0.00372831
-0.00377
-0.00381201
-0.00385432
-0.00389694
-0.00393988
-0.00398314
-0.00402671
-0.00407061
-0.00411483
-0.00415937
-0.00420425
-0.00424945
-0.00429499
-0.00434087
-0.00438708
-0.00443363
-0.00448053
-0.00452777
-0.00457536
-0.00462331
-0.0046716
-0.00472026
-0.00476927
-0.00481864
-0.00486838
-0.00491848
-0.00496895
-0.0050198
-0.00507102
-0.00512262
-0.0051746
-0.00522696
-0.00527971
-0.00533285
-0.00538638
-0.0054403
-0.00549463
-0.00554935
-0.00560448
-0.00566001
-0.00571595
-0.00577231
-0.00582908
-0.00588627
-0.00594388
-0.00600192
-0.00606038
-0.00611928
-0.00617861
-0.00623838
-0.00629859
-0.00635924
-0.00642034
-0.00648189
-0.0065439
-0.00660635
-0.00666928
-0.00673265
-0.00679654
-0.0068608
-0.00692571
-0.0069908
-0.00705683
-0.00712268
-0.00718991
-0.00725652
-0.00732481
-0.00739259
-0.00746121
-0.00753089
-0.00759902
-0.00767003
-0.00773779
-0.00780578
-0.00787121
-0.00792908
-0.00797898
0.000401111
0.00037866
0.00034374
0.000333713
0.000337875
0.000320519
0.000269072
0.000205154
0.000163826
0.000139481
8.93914e-05
2.3921e-05
-4.84029e-06
-7.12489e-06
-2.63801e-05
-5.32385e-05
-6.99427e-05
-9.76482e-05
-0.000144157
-0.000187311
-0.000216631
-0.000234531
-0.000243479
-0.000259361
-0.000297544
-0.000342391
-0.000367854
-0.000378551
-0.000397887
-0.000430295
-0.000461742
-0.00048546
-0.000507395
-0.000532626
-0.00055959
-0.000585663
-0.000610981
-0.000636708
-0.000663061
-0.000689592
-0.000715981
-0.000742092
-0.000767758
-0.000792779
-0.000817024
-0.000840476
-0.000863203
-0.000885324
-0.000906983
-0.000928333
-0.000949511
-0.000970635
-0.000991795
-0.00101306
-0.00103447
-0.00105606
-0.00107785
-0.00109983
-0.00112202
-0.00114441
-0.00116701
-0.0011898
-0.00121278
-0.00123596
-0.00125933
-0.00128289
-0.00130663
-0.00133055
-0.00135466
-0.00137895
-0.00140343
-0.00142808
-0.00145292
-0.00147794
-0.00150315
-0.00152854
-0.00155411
-0.00157988
-0.00160582
-0.00163196
-0.00165829
-0.0016848
-0.00171151
-0.00173841
-0.00176551
-0.0017928
-0.0018203
-0.00184798
-0.00187588
-0.00190397
-0.00193227
-0.00196077
-0.00198948
-0.00201839
-0.00204752
-0.00207686
-0.00210642
-0.00213619
-0.00216617
-0.00219638
-0.0022268
-0.00225745
-0.00228833
-0.00231942
-0.00235075
-0.0023823
-0.00241409
-0.00244611
-0.00247836
-0.00251085
-0.00254358
-0.00257655
-0.00260976
-0.00264322
-0.00267692
-0.00271087
-0.00274507
-0.00277952
-0.00281422
-0.00284918
-0.0028844
-0.00291987
-0.00295561
-0.00299161
-0.00302787
-0.00306441
-0.00310121
-0.00313828
-0.00317563
-0.00321325
-0.00325114
-0.00328932
-0.00332778
-0.00336652
-0.00340555
-0.00344486
-0.00348447
-0.00352437
-0.00356456
-0.00360504
-0.00364583
-0.00368692
-0.00372831
-0.00377
-0.00381201
-0.00385432
-0.00389694
-0.00393988
-0.00398314
-0.00402671
-0.00407061
-0.00411483
-0.00415937
-0.00420425
-0.00424945
-0.00429499
-0.00434087
-0.00438708
-0.00443363
-0.00448053
-0.00452777
-0.00457536
-0.00462331
-0.0046716
-0.00472026
-0.00476927
-0.00481864
-0.00486838
-0.00491848
-0.00496895
-0.0050198
-0.00507102
-0.00512262
-0.0051746
-0.00522696
-0.00527971
-0.00533285
-0.00538638
-0.0054403
-0.00549463
-0.00554935
-0.00560448
-0.00566001
-0.00571595
-0.00577231
-0.00582908
-0.00588627
-0.00594388
-0.00600192
-0.00606038
-0.00611928
-0.00617861
-0.00623838
-0.00629859
-0.00635924
-0.00642034
-0.00648189
-0.0065439
-0.00660635
-0.00666928
-0.00673265
-0.00679654
-0.0068608
-0.00692571
-0.0069908
-0.00705683
-0.00712268
-0.00718991
-0.00725652
-0.00732481
-0.00739259
-0.00746122
-0.0075309
-0.00759902
-0.00767005
-0.0077378
-0.00780581
-0.00787126
-0.00792914
-0.00797909
0.000336945
0.000326889
0.000293836
0.000271904
0.000269333
0.00026105
0.000228041
0.000176893
0.000135066
0.00011413
8.37055e-05
2.98096e-05
-9.96249e-06
-2.22311e-05
-4.05047e-05
-7.07266e-05
-9.16971e-05
-0.000111773
-0.000146981
-0.000185909
-0.000217123
-0.000242585
-0.000260218
-0.000273598
-0.00029959
-0.000339586
-0.000372417
-0.000389346
-0.000405806
-0.000433153
-0.000464187
-0.000489959
-0.000512289
-0.000536406
-0.000562685
-0.000588807
-0.000614107
-0.000639412
-0.000665136
-0.000690994
-0.00071667
-0.000742047
-0.000767032
-0.000791493
-0.000815328
-0.000838522
-0.000861128
-0.000883243
-0.000904984
-0.000926476
-0.000947833
-0.000969153
-0.00099051
-0.00101196
-0.00103354
-0.00105529
-0.0010772
-0.0010993
-0.00112158
-0.00114405
-0.00116671
-0.00118955
-0.00121258
-0.0012358
-0.00125919
-0.00128277
-0.00130654
-0.00133048
-0.0013546
-0.0013789
-0.00140339
-0.00142805
-0.0014529
-0.00147793
-0.00150314
-0.00152853
-0.00155411
-0.00157987
-0.00160582
-0.00163196
-0.00165829
-0.00168481
-0.00171152
-0.00173842
-0.00176552
-0.00179281
-0.0018203
-0.00184799
-0.00187588
-0.00190397
-0.00193227
-0.00196077
-0.00198948
-0.0020184
-0.00204753
-0.00207687
-0.00210642
-0.00213619
-0.00216618
-0.00219638
-0.00222681
-0.00225746
-0.00228833
-0.00231943
-0.00235075
-0.00238231
-0.00241409
-0.00244611
-0.00247837
-0.00251086
-0.00254359
-0.00257655
-0.00260977
-0.00264322
-0.00267692
-0.00271087
-0.00274507
-0.00277952
-0.00281422
-0.00284918
-0.0028844
-0.00291987
-0.00295561
-0.00299161
-0.00302788
-0.00306441
-0.00310121
-0.00313828
-0.00317563
-0.00321325
-0.00325114
-0.00328932
-0.00332778
-0.00336652
-0.00340555
-0.00344486
-0.00348447
-0.00352437
-0.00356456
-0.00360505
-0.00364583
-0.00368692
-0.00372831
-0.00377
-0.00381201
-0.00385432
-0.00389694
-0.00393988
-0.00398314
-0.00402671
-0.00407061
-0.00411483
-0.00415937
-0.00420425
-0.00424945
-0.00429499
-0.00434087
-0.00438708
-0.00443363
-0.00448053
-0.00452777
-0.00457536
-0.00462331
-0.0046716
-0.00472026
-0.00476927
-0.00481864
-0.00486838
-0.00491848
-0.00496895
-0.0050198
-0.00507102
-0.00512262
-0.0051746
-0.00522696
-0.00527971
-0.00533285
-0.00538638
-0.0054403
-0.00549463
-0.00554935
-0.00560448
-0.00566001
-0.00571595
-0.00577231
-0.00582908
-0.00588627
-0.00594388
-0.00600192
-0.00606038
-0.00611928
-0.00617861
-0.00623838
-0.00629859
-0.00635924
-0.00642034
-0.00648189
-0.0065439
-0.00660635
-0.00666928
-0.00673265
-0.00679654
-0.0068608
-0.00692571
-0.0069908
-0.00705683
-0.00712268
-0.00718991
-0.00725652
-0.00732481
-0.00739259
-0.00746122
-0.00753092
-0.00759903
-0.00767007
-0.00773783
-0.00780584
-0.00787131
-0.0079292
-0.00797918
0.000274329
0.000272541
0.000248416
0.000222894
0.000212121
0.000204825
0.000182781
0.000144409
0.000106586
8.36989e-05
6.19644e-05
2.2649e-05
-1.80213e-05
-4.00507e-05
-5.83669e-05
-8.6156e-05
-0.000110921
-0.000130113
-0.000156613
-0.000189678
-0.000220678
-0.000248759
-0.000271601
-0.000287471
-0.000307301
-0.000339536
-0.000373256
-0.000395888
-0.000413135
-0.00043649
-0.000465285
-0.000492068
-0.000515278
-0.000538544
-0.00056353
-0.000588925
-0.000613726
-0.000638291
-0.000663091
-0.000688048
-0.000712912
-0.000737573
-0.000761993
-0.000786105
-0.000809839
-0.000833164
-0.000856093
-0.000878668
-0.000900948
-0.000923003
-0.000944904
-0.000966721
-0.000988516
-0.00101034
-0.00103223
-0.00105423
-0.00107635
-0.00109861
-0.00112102
-0.0011436
-0.00116634
-0.00118925
-0.00121234
-0.0012356
-0.00125903
-0.00128264
-0.00130643
-0.00133039
-0.00135453
-0.00137885
-0.00140334
-0.00142802
-0.00145287
-0.00147791
-0.00150312
-0.00152852
-0.0015541
-0.00157987
-0.00160582
-0.00163196
-0.00165829
-0.00168481
-0.00171152
-0.00173843
-0.00176552
-0.00179282
-0.00182031
-0.001848
-0.00187589
-0.00190398
-0.00193228
-0.00196078
-0.00198949
-0.00201841
-0.00204754
-0.00207687
-0.00210643
-0.0021362
-0.00216618
-0.00219639
-0.00222681
-0.00225746
-0.00228833
-0.00231943
-0.00235076
-0.00238231
-0.0024141
-0.00244612
-0.00247837
-0.00251086
-0.00254359
-0.00257656
-0.00260977
-0.00264322
-0.00267692
-0.00271087
-0.00274507
-0.00277952
-0.00281423
-0.00284918
-0.0028844
-0.00291988
-0.00295561
-0.00299161
-0.00302788
-0.00306441
-0.00310121
-0.00313828
-0.00317563
-0.00321325
-0.00325114
-0.00328932
-0.00332778
-0.00336652
-0.00340555
-0.00344486
-0.00348447
-0.00352437
-0.00356456
-0.00360505
-0.00364583
-0.00368692
-0.00372831
-0.00377
-0.00381201
-0.00385432
-0.00389694
-0.00393988
-0.00398314
-0.00402671
-0.00407061
-0.00411483
-0.00415937
-0.00420425
-0.00424945
-0.00429499
-0.00434087
-0.00438708
-0.00443363
-0.00448053
-0.00452777
-0.00457536
-0.00462331
-0.0046716
-0.00472026
-0.00476927
-0.00481864
-0.00486838
-0.00491848
-0.00496895
-0.0050198
-0.00507102
-0.00512262
-0.0051746
-0.00522696
-0.00527971
-0.00533285
-0.00538638
-0.0054403
-0.00549463
-0.00554935
-0.00560448
-0.00566001
-0.00571595
-0.00577231
-0.00582908
-0.00588627
-0.00594388
-0.00600192
-0.00606038
-0.00611928
-0.00617861
-0.00623838
-0.00629859
-0.00635924
-0.00642034
-0.00648189
-0.0065439
-0.00660635
-0.00666928
-0.00673265
-0.00679654
-0.0068608
-0.00692571
-0.0069908
-0.00705683
-0.00712268
-0.00718992
-0.00725653
-0.00732481
-0.0073926
-0.00746122
-0.00753093
-0.00759904
-0.0076701
-0.00773785
-0.00780587
-0.00787136
-0.00792926
-0.00797926
0.000216106
0.00021528
0.000201281
0.000179999
0.000164028
0.000152691
0.000135428
0.000108656
7.8475e-05
5.32351e-05
3.18583e-05
3.53343e-06
-3.08264e-05
-5.77215e-05
-7.77949e-05
-0.000101859
-0.000127351
-0.00014821
-0.000170278
-0.000198177
-0.000227412
-0.000254641
-0.000278803
-0.000298382
-0.000317692
-0.000343888
-0.000374324
-0.000399877
-0.000419747
-0.000441171
-0.000466929
-0.000493084
-0.000516955
-0.000540091
-0.000564273
-0.000589167
-0.000613881
-0.000638341
-0.00066286
-0.000687476
-0.000712012
-0.000736349
-0.000760447
-0.000784276
-0.000807796
-0.000830988
-0.000853866
-0.000876463
-0.000898829
-0.000921017
-0.000943084
-0.000965085
-0.000987068
-0.00100907
-0.00103114
-0.00105329
-0.00107556
-0.00109794
-0.00112046
-0.00114313
-0.00116595
-0.00118893
-0.00121208
-0.00123538
-0.00125886
-0.0012825
-0.00130631
-0.0013303
-0.00135446
-0.00137879
-0.0014033
-0.00142799
-0.00145285
-0.00147789
-0.00150311
-0.00152852
-0.0015541
-0.00157987
-0.00160583
-0.00163197
-0.0016583
-0.00168482
-0.00171153
-0.00173844
-0.00176554
-0.00179283
-0.00182032
-0.00184801
-0.0018759
-0.001904
-0.00193229
-0.00196079
-0.0019895
-0.00201842
-0.00204755
-0.00207689
-0.00210644
-0.00213621
-0.00216619
-0.0021964
-0.00222682
-0.00225747
-0.00228834
-0.00231944
-0.00235076
-0.00238232
-0.0024141
-0.00244612
-0.00247837
-0.00251086
-0.00254359
-0.00257656
-0.00260977
-0.00264323
-0.00267693
-0.00271088
-0.00274507
-0.00277952
-0.00281423
-0.00284919
-0.0028844
-0.00291988
-0.00295561
-0.00299161
-0.00302788
-0.00306441
-0.00310121
-0.00313828
-0.00317563
-0.00321325
-0.00325114
-0.00328932
-0.00332778
-0.00336652
-0.00340555
-0.00344486
-0.00348447
-0.00352437
-0.00356456
-0.00360505
-0.00364583
-0.00368692
-0.00372831
-0.00377
-0.00381201
-0.00385432
-0.00389694
-0.00393988
-0.00398314
-0.00402671
-0.00407061
-0.00411483
-0.00415937
-0.00420425
-0.00424945
-0.00429499
-0.00434087
-0.00438708
-0.00443363
-0.00448053
-0.00452777
-0.00457536
-0.00462331
-0.0046716
-0.00472026
-0.00476927
-0.00481864
-0.00486838
-0.00491848
-0.00496895
-0.0050198
-0.00507102
-0.00512262
-0.0051746
-0.00522696
-0.00527971
-0.00533285
-0.00538638
-0.0054403
-0.00549463
-0.00554935
-0.00560448
-0.00566001
-0.00571595
-0.00577231
-0.00582908
-0.00588627
-0.00594388
-0.00600192
-0.00606038
-0.00611928
-0.00617861
-0.00623838
-0.00629859
-0.00635924
-0.00642034
-0.00648189
-0.0065439
-0.00660635
-0.00666929
-0.00673265
-0.00679654
-0.0068608
-0.00692571
-0.0069908
-0.00705683
-0.00712268
-0.00718992
-0.00725653
-0.00732482
-0.00739261
-0.00746123
-0.00753094
-0.00759905
-0.00767012
-0.00773789
-0.00780591
-0.00787141
-0.00792931
-0.00797934
0.000165174
0.00016406
0.000155738
0.000138326
0.000119544
0.000104806
9.0987e-05
7.22657e-05
4.71603e-05
2.14814e-05
4.11432e-07
-2.12733e-05
-4.89493e-05
-7.62207e-05
-9.79058e-05
-0.000119324
-0.00014285
-0.000164476
-0.000185573
-0.000210414
-0.000237115
-0.000262244
-0.000285793
-0.000307682
-0.00032834
-0.000351152
-0.000377396
-0.000403094
-0.000425465
-0.000447118
-0.000471027
-0.000496245
-0.000520615
-0.000544088
-0.000567784
-0.000591965
-0.000616138
-0.000640069
-0.000663903
-0.000687746
-0.000711545
-0.000735223
-0.000758756
-0.000782134
-0.000805338
-0.000828353
-0.00085118
-0.000873832
-0.000896332
-0.00091871
-0.000940999
-0.000963235
-0.00098545
-0.00100768
-0.00102995
-0.00105228
-0.0010747
-0.00109722
-0.00111986
-0.00114263
-0.00116554
-0.00118859
-0.0012118
-0.00123515
-0.00125867
-0.00128235
-0.00130619
-0.0013302
-0.00135438
-0.00137874
-0.00140326
-0.00142796
-0.00145283
-0.00147788
-0.00150311
-0.00152852
-0.00155411
-0.00157988
-0.00160584
-0.00163199
-0.00165832
-0.00168484
-0.00171155
-0.00173846
-0.00176556
-0.00179285
-0.00182034
-0.00184803
-0.00187592
-0.00190401
-0.00193231
-0.00196081
-0.00198952
-0.00201843
-0.00204756
-0.0020769
-0.00210645
-0.00213622
-0.0021662
-0.00219641
-0.00222683
-0.00225748
-0.00228835
-0.00231945
-0.00235077
-0.00238232
-0.00241411
-0.00244613
-0.00247838
-0.00251087
-0.0025436
-0.00257657
-0.00260978
-0.00264323
-0.00267693
-0.00271088
-0.00274508
-0.00277953
-0.00281423
-0.00284919
-0.0028844
-0.00291988
-0.00295561
-0.00299161
-0.00302788
-0.00306441
-0.00310121
-0.00313828
-0.00317563
-0.00321325
-0.00325115
-0.00328932
-0.00332778
-0.00336652
-0.00340555
-0.00344487
-0.00348447
-0.00352437
-0.00356456
-0.00360505
-0.00364583
-0.00368692
-0.00372831
-0.00377
-0.00381201
-0.00385432
-0.00389694
-0.00393988
-0.00398314
-0.00402671
-0.00407061
-0.00411483
-0.00415937
-0.00420425
-0.00424945
-0.00429499
-0.00434087
-0.00438708
-0.00443363
-0.00448053
-0.00452777
-0.00457536
-0.00462331
-0.0046716
-0.00472026
-0.00476927
-0.00481864
-0.00486838
-0.00491848
-0.00496895
-0.0050198
-0.00507102
-0.00512262
-0.0051746
-0.00522696
-0.00527971
-0.00533285
-0.00538638
-0.0054403
-0.00549463
-0.00554935
-0.00560448
-0.00566001
-0.00571595
-0.00577231
-0.00582908
-0.00588627
-0.00594388
-0.00600192
-0.00606038
-0.00611928
-0.00617861
-0.00623838
-0.00629859
-0.00635924
-0.00642034
-0.00648189
-0.0065439
-0.00660635
-0.00666929
-0.00673265
-0.00679654
-0.0068608
-0.00692571
-0.0069908
-0.00705684
-0.00712268
-0.00718992
-0.00725653
-0.00732482
-0.00739261
-0.00746124
-0.00753096
-0.00759907
-0.00767015
-0.00773792
-0.00780595
-0.00787147
-0.00792937
-0.0079794
0.000123697
0.000117529
0.000108172
9.40857e-05
7.84629e-05
6.45167e-05
5.0645e-05
3.31472e-05
1.20275e-05
-9.20215e-06
-2.87048e-05
-4.89496e-05
-7.22661e-05
-9.61391e-05
-0.000117455
-0.000137781
-0.000159246
-0.000180917
-0.000202513
-0.000225248
-0.000248587
-0.000271445
-0.000294372
-0.000317326
-0.000339249
-0.000361068
-0.00038473
-0.000409455
-0.000432891
-0.000455016
-0.000477652
-0.000501295
-0.000524903