/*--------------------------------*- C++ -*----------------------------------*\
| =========                 |                                                 |
| \\      /  F ield         | OpenFOAM: The Open Source CFD Toolbox           |
|  \\    /   O peration     | Version:  v1906                                 |
|   \\  /    A nd           | Web:      www.OpenFOAM.com                      |
|    \\/     M anipulation  |                                                 |
\*---------------------------------------------------------------------------*/
FoamFile
{
    version     2.0;
    format      ascii;
    class       surfaceScalarField;
    location    "0.1";
    object      phi;
}
// * * * * * * * * * * * * * * * * * * * * * * * * * * * * * * * * * * * * * //

dimensions      [0 3 -1 0 0 0 0];
oriented        oriented;


internalField   nonuniform List<scalar> 
9340
(
1.99058e-05
-3.07531e-08
1.99006e-05
3.10484e-08
1.98993e-05
8.38007e-09
1.99029e-05
-3.27036e-08
1.98987e-05
2.65058e-08
1.98988e-05
7.59316e-09
1.98994e-05
-1.27508e-08
1.98987e-05
-5.53721e-09
1.98979e-05
6.11801e-09
1.98977e-05
7.9252e-09
1.9897e-05
3.52994e-09
1.9896e-05
-8.0769e-10
1.98952e-05
-2.68629e-09
1.98942e-05
-3.80807e-10
1.98922e-05
3.33049e-09
1.98893e-05
6.54368e-09
1.98856e-05
8.46462e-09
1.98814e-05
9.70921e-09
1.98769e-05
1.04283e-08
1.05444e-08
1.98724e-05
2.16535e-05
-2.44179e-08
2.16632e-05
2.13116e-08
2.16598e-05
1.18149e-08
2.16552e-05
-2.81415e-08
2.16609e-05
2.07903e-08
2.16596e-05
8.90548e-09
2.16586e-05
-1.17777e-08
2.16552e-05
-2.13971e-09
2.16557e-05
5.66777e-09
2.16577e-05
5.89005e-09
2.16574e-05
3.86819e-09
2.16552e-05
1.3546e-09
2.16527e-05
-1.40814e-10
2.16504e-05
1.92312e-09
2.16483e-05
5.42042e-09
2.16469e-05
7.93755e-09
2.16465e-05
8.86504e-09
2.16467e-05
9.47071e-09
2.16472e-05
9.99357e-09
1.01405e-08
2.16476e-05
2.3568e-05
-1.79562e-08
2.35774e-05
1.19167e-08
2.3575e-05
1.42466e-08
2.35692e-05
-2.23695e-08
2.35758e-05
1.42545e-08
2.35744e-05
1.02416e-08
2.35729e-05
-1.02241e-08
2.35701e-05
6.71698e-10
2.35699e-05
5.85825e-09
2.3572e-05
3.75056e-09
2.35718e-05
4.03215e-09
2.35695e-05
3.7183e-09
2.35666e-05
2.71933e-09
2.35648e-05
3.78363e-09
2.35638e-05
6.36936e-09
2.35635e-05
8.29618e-09
2.35634e-05
8.92627e-09
2.35636e-05
9.26576e-09
2.35639e-05
9.70095e-09
1.00539e-08
2.3564e-05
2.56535e-05
-1.29842e-08
2.56593e-05
6.07047e-09
2.56598e-05
1.37457e-08
2.56535e-05
-1.60527e-08
2.56592e-05
8.53939e-09
2.56582e-05
1.12577e-08
2.56555e-05
-7.47897e-09
2.56557e-05
4.69946e-10
2.56544e-05
7.13196e-09
2.56544e-05
3.68952e-09
2.56546e-05
3.88148e-09
2.56529e-05
5.40712e-09
2.56509e-05
4.71193e-09
2.56498e-05
4.90721e-09
2.56492e-05
7.00283e-09
2.56486e-05
8.8414e-09
2.56482e-05
9.32426e-09
2.56482e-05
9.28881e-09
2.56484e-05
9.44376e-09
9.6393e-09
2.56489e-05
2.79224e-05
-8.78462e-09
2.79266e-05
1.89946e-09
2.79283e-05
1.20013e-08
2.7922e-05
-9.73389e-09
2.79265e-05
4.05907e-09
2.79269e-05
1.08305e-08
2.79233e-05
-3.85716e-09
2.79235e-05
2.66068e-10
2.79229e-05
7.75723e-09
2.79221e-05
4.47966e-09
2.79224e-05
3.58251e-09
2.79214e-05
6.40685e-09
2.79194e-05
6.66189e-09
2.79182e-05
6.18674e-09
2.79178e-05
7.35284e-09
2.79177e-05
8.89248e-09
2.79177e-05
9.41472e-09
2.79178e-05
9.16412e-09
2.79181e-05
9.0964e-09
9.24013e-09
2.79185e-05
3.03923e-05
-5.78055e-09
3.03943e-05
-1.24381e-10
3.03967e-05
9.55101e-09
3.03918e-05
-4.79958e-09
3.03942e-05
1.7015e-09
3.03955e-05
9.4916e-09
3.03919e-05
-2.94391e-10
3.03918e-05
4.0302e-10
3.03923e-05
7.29342e-09
3.03908e-05
5.95002e-09
3.03901e-05
4.281e-09
3.03899e-05
6.60076e-09
3.03888e-05
7.76579e-09
3.03878e-05
7.18111e-09
3.03876e-05
7.56667e-09
3.03876e-05
8.84804e-09
3.03876e-05
9.45857e-09
3.03876e-05
9.19292e-09
3.03878e-05
8.84616e-09
8.80841e-09
3.03883e-05
3.308e-05
-3.58358e-09
3.30808e-05
-9.35074e-10
3.30833e-05
7.034e-09
3.30796e-05
-1.09975e-09
3.30803e-05
9.79724e-10
3.30822e-05
7.6216e-09
3.30794e-05
2.47821e-09
3.30784e-05
1.45576e-09
3.3079e-05
6.61744e-09
3.3078e-05
6.94524e-09
3.30771e-05
5.25117e-09
3.3077e-05
6.63386e-09
3.30765e-05
8.27078e-09
3.30756e-05
8.13306e-09
3.30752e-05
7.98906e-09
3.30754e-05
8.59268e-09
3.30758e-05
9.12657e-09
3.30759e-05
9.01965e-09
3.30761e-05
8.66952e-09
8.51632e-09
3.30764e-05
3.60051e-05
-2.12157e-09
3.60051e-05
-9.28305e-10
3.60071e-05
5.06941e-09
3.60048e-05
1.14498e-09
3.60046e-05
1.26113e-09
3.6006e-05
6.16778e-09
3.60043e-05
4.21827e-09
3.60029e-05
2.82124e-09
3.60034e-05
6.08441e-09
3.6003e-05
7.35318e-09
3.60019e-05
6.39286e-09
3.60016e-05
6.96491e-09
3.60015e-05
8.30069e-09
3.60012e-05
8.49619e-09
3.60009e-05
8.21963e-09
3.60011e-05
8.42242e-09
3.60014e-05
8.86857e-09
3.60015e-05
8.89136e-09
3.60016e-05
8.53935e-09
8.18714e-09
3.60019e-05
3.91886e-05
-1.16874e-09
3.91881e-05
-5.16725e-10
3.91895e-05
3.66803e-09
3.91883e-05
2.39961e-09
3.91875e-05
2.05149e-09
3.91884e-05
5.21991e-09
3.91876e-05
5.07228e-09
3.91863e-05
4.13303e-09
3.91864e-05
6.00276e-09
3.91863e-05
7.4565e-09
3.91855e-05
7.16437e-09
3.91852e-05
7.28773e-09
3.91853e-05
8.16464e-09
3.91852e-05
8.56047e-09
3.9185e-05
8.458e-09
3.9185e-05
8.41638e-09
3.91854e-05
8.51646e-09
3.91858e-05
8.46755e-09
3.91861e-05
8.19114e-09
7.86353e-09
3.91865e-05
4.26532e-05
-5.6659e-10
4.26527e-05
1.45204e-12
4.26535e-05
2.86539e-09
4.26529e-05
3.02184e-09
4.26521e-05
2.84514e-09
4.26525e-05
4.78597e-09
4.26521e-05
5.45095e-09
4.26511e-05
5.14951e-09
4.26509e-05
6.16822e-09
4.2651e-05
7.36265e-09
4.26507e-05
7.53367e-09
4.26503e-05
7.61026e-09
4.26504e-05
8.1034e-09
4.26505e-05
8.44419e-09
4.26506e-05
8.38858e-09
4.26508e-05
8.2263e-09
4.26511e-05
8.15774e-09
4.26515e-05
8.09114e-09
4.26518e-05
7.88245e-09
7.55871e-09
4.26521e-05
4.64239e-05
-1.86971e-10
4.64235e-05
4.88971e-10
4.64238e-05
2.50339e-09
4.64236e-05
3.28577e-09
4.64229e-05
3.47399e-09
4.6423e-05
4.7099e-09
4.64229e-05
5.58384e-09
4.64223e-05
5.7574e-09
4.6422e-05
6.3866e-09
4.64221e-05
7.26657e-09
4.6422e-05
7.65038e-09
4.64219e-05
7.75068e-09
4.6422e-05
7.96142e-09
4.64223e-05
8.16278e-09
4.64225e-05
8.15411e-09
4.64228e-05
8.01341e-09
4.64231e-05
7.85932e-09
4.64235e-05
7.68419e-09
4.64239e-05
7.42959e-09
7.10659e-09
4.64244e-05
5.05279e-05
5.45638e-11
5.05275e-05
8.83457e-10
5.05276e-05
2.40127e-09
5.05275e-05
3.39476e-09
5.05271e-05
3.88325e-09
5.0527e-05
4.76933e-09
5.0527e-05
5.60342e-09
5.05267e-05
6.03651e-09
5.05266e-05
6.53246e-09
5.05267e-05
7.15473e-09
5.05268e-05
7.5343e-09
5.05269e-05
7.65412e-09
5.05271e-05
7.76335e-09
5.05274e-05
7.85372e-09
5.05278e-05
7.82072e-09
5.05281e-05
7.66242e-09
5.05285e-05
7.44689e-09
5.0529e-05
7.21271e-09
5.05295e-05
6.95125e-09
6.65233e-09
5.05299e-05
5.49946e-05
2.12611e-10
5.49943e-05
1.16457e-09
5.49943e-05
2.41786e-09
5.49943e-05
3.42885e-09
5.49941e-05
4.08459e-09
5.4994e-05
4.8174e-09
5.49941e-05
5.54913e-09
5.49941e-05
6.0687e-09
5.49941e-05
6.5132e-09
5.49943e-05
6.96122e-09
5.49945e-05
7.26465e-09
5.49948e-05
7.40158e-09
5.49951e-05
7.45627e-09
5.49955e-05
7.45416e-09
5.49959e-05
7.36922e-09
5.49964e-05
7.1991e-09
5.49969e-05
6.97483e-09
5.49974e-05
6.72206e-09
5.49979e-05
6.44464e-09
6.14156e-09
5.49984e-05
5.98561e-05
3.13681e-10
5.98559e-05
1.33904e-09
5.98559e-05
2.44773e-09
5.98559e-05
3.40129e-09
5.98559e-05
4.11178e-09
5.9856e-05
4.7686e-09
5.98561e-05
5.39898e-09
5.98563e-05
5.90731e-09
5.98565e-05
6.31167e-09
5.98568e-05
6.64749e-09
5.98572e-05
6.87861e-09
5.98576e-05
6.99397e-09
5.9858e-05
7.01015e-09
5.98585e-05
6.95604e-09
5.98591e-05
6.83678e-09
5.98596e-05
6.65497e-09
5.98602e-05
6.4245e-09
5.98607e-05
6.163e-09
5.98613e-05
5.88226e-09
5.5884e-09
5.98618e-05
6.51474e-05
3.71785e-10
6.51473e-05
1.41498e-09
6.51473e-05
2.42491e-09
6.51474e-05
3.29499e-09
6.51475e-05
3.98514e-09
6.51477e-05
4.58108e-09
6.5148e-05
5.12316e-09
6.51483e-05
5.57859e-09
6.51487e-05
5.93363e-09
6.51492e-05
6.19174e-09
6.51497e-05
6.368e-09
6.51502e-05
6.4469e-09
6.51508e-05
6.43555e-09
6.51514e-05
6.35314e-09
6.5152e-05
6.2124e-09
6.51527e-05
6.02246e-09
6.51533e-05
5.79464e-09
6.51539e-05
5.54163e-09
6.51545e-05
5.27336e-09
4.99628e-09
6.51551e-05
7.09063e-05
3.92727e-10
7.09063e-05
1.3976e-09
7.09064e-05
2.31198e-09
7.09067e-05
3.08492e-09
7.09069e-05
3.71097e-09
7.09073e-05
4.23816e-09
7.09077e-05
4.69915e-09
7.09082e-05
5.08675e-09
7.09087e-05
5.3854e-09
7.09093e-05
5.59153e-09
7.091e-05
5.72108e-09
7.09107e-05
5.76658e-09
7.09114e-05
5.73437e-09
7.09121e-05
5.63832e-09
7.09128e-05
5.49175e-09
7.09135e-05
5.30583e-09
7.09142e-05
5.0906e-09
7.09149e-05
4.85546e-09
7.09156e-05
4.6083e-09
4.35524e-09
7.09162e-05
7.71744e-05
3.78117e-10
7.71745e-05
1.28902e-09
7.71747e-05
2.08827e-09
7.7175e-05
2.7498e-09
7.71755e-05
3.28658e-09
7.7176e-05
3.73356e-09
7.71765e-05
4.11469e-09
7.71772e-05
4.43061e-09
7.71779e-05
4.67345e-09
7.71787e-05
4.83998e-09
7.71795e-05
4.93144e-09
7.71803e-05
4.95151e-09
7.71811e-05
4.9075e-09
7.71819e-05
4.8102e-09
7.71827e-05
4.67094e-09
7.71835e-05
4.5001e-09
7.71843e-05
4.30687e-09
7.71851e-05
4.09946e-09
7.71858e-05
3.88483e-09
3.66827e-09
7.71865e-05
8.39965e-05
3.30165e-10
8.39967e-05
1.08857e-09
8.3997e-05
1.74315e-09
8.39975e-05
2.27631e-09
8.39981e-05
2.7077e-09
8.39987e-05
3.0655e-09
8.39995e-05
3.36685e-09
8.40003e-05
3.61396e-09
8.40012e-05
3.80224e-09
8.40021e-05
3.92833e-09
8.4003e-05
3.99238e-09
8.4004e-05
3.99842e-09
8.40049e-05
3.95343e-09
8.40059e-05
3.86638e-09
8.40068e-05
3.74648e-09
8.40077e-05
3.60229e-09
8.40086e-05
3.44116e-09
8.40094e-05
3.26932e-09
8.40102e-05
3.0918e-09
2.91255e-09
8.4011e-05
9.14217e-05
2.57159e-10
9.14219e-05
8.09585e-10
9.14224e-05
1.28116e-09
9.1423e-05
1.66849e-09
9.14237e-05
1.98554e-09
9.14245e-05
2.24878e-09
9.14254e-05
2.46773e-09
9.14264e-05
2.64465e-09
9.14274e-05
2.77757e-09
9.14285e-05
2.86471e-09
9.14296e-05
2.90637e-09
9.14307e-05
2.90593e-09
9.14318e-05
2.86894e-09
9.14328e-05
2.80223e-09
9.14339e-05
2.71261e-09
9.14349e-05
2.60632e-09
9.14358e-05
2.48863e-09
9.14367e-05
2.36393e-09
9.14376e-05
2.23568e-09
2.10664e-09
9.14384e-05
9.95033e-05
9.95036e-05
9.95043e-05
9.9505e-05
9.95059e-05
9.95069e-05
9.9508e-05
9.95092e-05
9.95104e-05
9.95116e-05
9.95129e-05
9.95141e-05
9.95153e-05
9.95165e-05
9.95177e-05
9.95188e-05
9.95198e-05
9.95208e-05
9.95218e-05
9.95227e-05
1.98621e-05
1.02945e-08
1.98504e-05
1.17115e-08
1.98368e-05
1.36116e-08
1.98212e-05
1.56241e-08
1.98036e-05
1.75128e-08
1.97848e-05
1.88203e-08
1.97655e-05
1.93248e-08
1.97463e-05
1.9148e-08
1.97274e-05
1.89083e-08
1.97088e-05
1.86665e-08
1.96903e-05
1.84899e-08
1.96717e-05
1.85695e-08
1.96529e-05
1.87826e-08
1.96338e-05
1.9131e-08
1.96142e-05
1.96148e-08
1.95941e-05
2.00699e-08
1.95738e-05
2.03266e-08
1.95535e-05
2.03216e-08
1.95333e-05
2.02039e-08
1.9513e-05
2.02315e-08
1.94925e-05
2.04984e-08
1.94717e-05
2.0813e-08
1.94508e-05
2.09618e-08
1.94298e-05
2.0996e-08
1.94086e-05
2.11447e-08
1.93872e-05
2.14289e-08
1.93656e-05
2.16303e-08
1.93439e-05
2.16407e-08
1.93223e-05
2.16195e-08
1.93005e-05
2.17839e-08
1.92784e-05
2.21395e-08
1.92559e-05
2.24683e-08
1.92334e-05
2.25417e-08
1.9211e-05
2.23352e-08
1.9189e-05
2.20718e-08
1.91669e-05
2.20685e-08
1.91444e-05
2.2498e-08
1.91212e-05
2.32324e-08
1.90973e-05
2.38742e-08
1.90733e-05
2.39417e-08
1.90503e-05
2.30867e-08
1.9029e-05
2.12272e-08
1.90105e-05
1.85481e-08
1.89951e-05
1.54033e-08
1.89829e-05
1.21847e-08
1.89737e-05
9.21595e-09
1.8967e-05
6.69903e-09
1.89623e-05
4.71117e-09
1.8959e-05
3.23353e-09
1.89568e-05
2.19076e-09
1.89554e-05
1.48626e-09
1.89543e-05
1.02641e-09
1.89536e-05
7.33174e-10
1.89531e-05
5.47896e-10
1.89526e-05
4.29827e-10
1.89523e-05
3.52397e-10
1.8952e-05
2.99147e-10
1.89517e-05
2.60301e-10
1.89515e-05
2.30251e-10
1.89513e-05
2.05833e-10
1.89511e-05
1.85259e-10
1.89509e-05
1.67498e-10
1.89508e-05
1.51921e-10
1.89506e-05
1.38121e-10
1.89505e-05
1.25809e-10
1.89504e-05
1.14769e-10
1.89503e-05
1.04833e-10
1.89502e-05
9.58619e-11
1.89501e-05
8.77413e-11
1.895e-05
8.03721e-11
1.89499e-05
7.36705e-11
1.89499e-05
6.75656e-11
1.89498e-05
6.19957e-11
1.89498e-05
5.69066e-11
1.89497e-05
5.225e-11
1.89497e-05
4.7984e-11
1.89496e-05
4.40724e-11
1.89496e-05
4.04835e-11
1.89495e-05
3.71881e-11
1.89495e-05
3.41599e-11
1.89495e-05
3.13751e-11
1.89494e-05
2.88135e-11
1.89494e-05
2.64567e-11
1.89494e-05
2.4288e-11
1.89494e-05
2.22916e-11
1.89494e-05
2.04531e-11
1.89493e-05
1.87599e-11
1.89493e-05
1.72009e-11
1.89493e-05
1.5766e-11
1.89493e-05
1.44455e-11
1.89493e-05
1.32298e-11
1.89493e-05
1.21105e-11
1.89492e-05
1.10801e-11
1.89492e-05
1.01322e-11
1.89492e-05
9.26105e-12
1.89492e-05
8.46065e-12
1.89492e-05
7.72519e-12
1.89492e-05
7.04932e-12
1.89492e-05
6.42837e-12
1.89492e-05
5.85841e-12
1.89492e-05
5.33583e-12
1.89492e-05
4.85707e-12
1.89492e-05
4.41857e-12
1.89492e-05
4.0169e-12
1.89492e-05
3.64905e-12
1.89492e-05
3.31239e-12
1.89492e-05
3.00465e-12
1.89492e-05
2.72366e-12
1.89492e-05
2.46726e-12
1.89492e-05
2.23337e-12
1.89492e-05
2.0201e-12
1.89492e-05
1.82572e-12
1.89492e-05
1.64873e-12
1.89492e-05
1.4877e-12
1.89491e-05
1.34135e-12
1.89491e-05
1.20849e-12
1.89491e-05
1.08796e-12
1.89491e-05
9.78694e-13
1.89491e-05
8.7966e-13
1.89491e-05
7.89903e-13
1.89491e-05
7.086e-13
1.89491e-05
6.35067e-13
1.89491e-05
5.68692e-13
1.89491e-05
5.08901e-13
1.89491e-05
4.5508e-13
1.89491e-05
4.06581e-13
1.89491e-05
3.6286e-13
1.89491e-05
3.23464e-13
1.89491e-05
2.88116e-13
1.89491e-05
2.56513e-13
1.89491e-05
2.28212e-13
1.89491e-05
2.0278e-13
1.89491e-05
1.79879e-13
1.89491e-05
1.59366e-13
1.89491e-05
1.41149e-13
1.89491e-05
1.24946e-13
1.89491e-05
1.10555e-13
1.89491e-05
9.76527e-14
1.89491e-05
8.60237e-14
1.89491e-05
7.57981e-14
1.89491e-05
6.68561e-14
1.89491e-05
5.89634e-14
1.89491e-05
5.18505e-14
1.89491e-05
4.53476e-14
1.89491e-05
3.96723e-14
1.89491e-05
3.48514e-14
1.89491e-05
3.06136e-14
1.89491e-05
2.67398e-14
1.89491e-05
2.31934e-14
1.89491e-05
1.99523e-14
1.89491e-05
1.75146e-14
1.89491e-05
1.53097e-14
1.89491e-05
1.34307e-14
1.89491e-05
1.15826e-14
1.89491e-05
1.01146e-14
1.89491e-05
8.93222e-15
1.89491e-05
7.79371e-15
1.89491e-05
6.7647e-15
1.89491e-05
5.40438e-15
1.89491e-05
4.87725e-15
1.89491e-05
3.89169e-15
1.89491e-05
3.75185e-15
1.89491e-05
3.08015e-15
1.89491e-05
2.23511e-15
1.89491e-05
2.74505e-15
1.89491e-05
2.03337e-15
1.89491e-05
1.30869e-15
1.89491e-05
2.00679e-15
1.89491e-05
8.00841e-16
1.89491e-05
4.17664e-16
1.89491e-05
2.21623e-15
1.89491e-05
-7.30094e-17
1.89491e-05
8.28704e-16
1.89491e-05
1.20446e-15
1.89491e-05
-5.05027e-16
1.89491e-05
1.15406e-15
1.89491e-05
5.94518e-16
1.89491e-05
5.08491e-16
1.89491e-05
3.95813e-16
1.89491e-05
4.27753e-16
1.89491e-05
7.9404e-16
1.89491e-05
3.40424e-16
1.89491e-05
9.34197e-16
1.89491e-05
1.006e-15
1.89491e-05
3.94987e-16
1.89491e-05
1.31091e-15
1.89491e-05
1.89339e-15
1.89491e-05
1.25772e-15
1.89491e-05
2.4202e-15
1.89491e-05
3.0971e-15
1.89491e-05
2.54262e-15
1.89491e-05
4.62844e-15
1.89491e-05
5.06468e-15
1.89491e-05
6.90679e-15
1.89491e-05
5.82109e-15
1.89491e-05
1.54697e-14
1.89491e-05
-2.66262e-17
1.89491e-05
4.23164e-14
1.89491e-05
-3.6092e-14
1.89491e-05
1.38249e-13
1.89491e-05
-1.9456e-13
1.89491e-05
4.72214e-13
1.89491e-05
-7.4657e-13
1.89491e-05
1.46171e-12
1.89491e-05
-2.23954e-12
1.89491e-05
3.70553e-12
1.89491e-05
-4.99493e-12
1.89491e-05
6.69068e-12
1.89491e-05
-6.72875e-12
1.89491e-05
5.63638e-12
1.89491e-05
-1.65326e-13
1.89491e-05
-6.49163e-12
1.89491e-05
1.65426e-11
1.89491e-05
-1.87407e-11
1.89491e-05
1.94101e-11
1.89491e-05
-2.70514e-13
1.89491e-05
-8.02079e-13
1.89491e-05
3.01393e-11
1.89491e-05
1.44544e-12
9.17184e-11
2.1648e-05
9.88809e-09
2.16489e-05
1.08176e-08
2.16503e-05
1.2223e-08
2.1652e-05
1.3919e-08
2.16538e-05
1.57241e-08
2.16553e-05
1.72547e-08
2.16565e-05
1.81628e-08
2.16571e-05
1.85277e-08
2.16575e-05
1.85101e-08
2.1658e-05
1.81318e-08
2.16588e-05
1.7712e-08
2.16597e-05
1.77087e-08
2.16603e-05
1.81086e-08
2.16608e-05
1.86583e-08
2.16612e-05
1.92412e-08
2.16615e-05
1.97403e-08
2.16619e-05
1.99633e-08
2.16623e-05
1.99075e-08
2.16627e-05
1.98021e-08
2.16631e-05
1.98729e-08
2.16634e-05
2.0179e-08
2.16636e-05
2.05777e-08
2.16638e-05
2.08164e-08
2.16639e-05
2.08497e-08
2.16641e-05
2.09148e-08
2.16644e-05
2.1153e-08
2.16646e-05
2.14173e-08
2.16647e-05
2.15278e-08
2.16648e-05
2.1551e-08
2.16649e-05
2.16796e-08
2.16651e-05
2.19526e-08
2.16654e-05
2.22108e-08
2.16656e-05
2.2284e-08
2.16658e-05
2.21621e-08
2.16659e-05
2.2004e-08
2.16659e-05
2.20141e-08
2.16661e-05
2.22821e-08
2.16667e-05
2.26863e-08
2.16676e-05
2.29217e-08
2.16689e-05
2.26347e-08
2.16704e-05
2.15829e-08
2.16719e-05
1.97309e-08
2.16732e-05
1.72471e-08
2.16742e-05
1.44256e-08
2.16748e-05
1.15834e-08
2.1675e-05
8.97783e-09
2.1675e-05
6.76654e-09
2.16747e-05
5.00631e-09
2.16742e-05
3.67735e-09
2.16737e-05
2.71538e-09
2.16732e-05
2.04e-09
2.16726e-05
1.57397e-09
2.16721e-05
1.25307e-09
2.16716e-05
1.02899e-09
2.16712e-05
8.67945e-10
2.16708e-05
7.47666e-10
2.16704e-05
6.54066e-10
2.16701e-05
5.78469e-10
2.16698e-05
5.15574e-10
2.16696e-05
4.62084e-10
2.16693e-05
4.15882e-10
2.16691e-05
3.75532e-10
2.16689e-05
3.40014e-10
2.16688e-05
3.08554e-10
2.16686e-05
2.80548e-10
2.16685e-05
2.55508e-10
2.16683e-05
2.33038e-10
2.16682e-05
2.1281e-10
2.16681e-05
1.94548e-10
2.1668e-05
1.78015e-10
2.16679e-05
1.63013e-10
2.16679e-05
1.49372e-10
2.16678e-05
1.36948e-10
2.16677e-05
1.25614e-10
2.16676e-05
1.15258e-10
2.16676e-05
1.05782e-10
2.16675e-05
9.71041e-11
2.16675e-05
8.91503e-11
2.16674e-05
8.1854e-11
2.16674e-05
7.5155e-11
2.16674e-05
6.89994e-11
2.16673e-05
6.33411e-11
2.16673e-05
5.81387e-11
2.16673e-05
5.33547e-11
2.16672e-05
4.89534e-11
2.16672e-05
4.49026e-11
2.16672e-05
4.11738e-11
2.16672e-05
3.77421e-11
2.16672e-05
3.45846e-11
2.16671e-05
3.16797e-11
2.16671e-05
2.90065e-11
2.16671e-05
2.65464e-11
2.16671e-05
2.42828e-11
2.16671e-05
2.22014e-11
2.16671e-05
2.02887e-11
2.16671e-05
1.85316e-11
2.16671e-05
1.69173e-11
2.1667e-05
1.54343e-11
2.1667e-05
1.40724e-11
2.1667e-05
1.28228e-11
2.1667e-05
1.16773e-11
2.1667e-05
1.06278e-11
2.1667e-05
9.66666e-12
2.1667e-05
8.78637e-12
2.1667e-05
7.98041e-12
2.1667e-05
7.2431e-12
2.1667e-05
6.56934e-12
2.1667e-05
5.95425e-12
2.1667e-05
5.39305e-12
2.1667e-05
4.88118e-12
2.1667e-05
4.41444e-12
2.1667e-05
3.98907e-12
2.1667e-05
3.60176e-12
2.1667e-05
3.2495e-12
2.1667e-05
2.92949e-12
2.1667e-05
2.63907e-12
2.1667e-05
2.37567e-12
2.1667e-05
2.13681e-12
2.1667e-05
1.92024e-12
2.1667e-05
1.72395e-12
2.1667e-05
1.54622e-12
2.1667e-05
1.38564e-12
2.1667e-05
1.24086e-12
2.1667e-05
1.11046e-12
2.1667e-05
9.93011e-13
2.1667e-05
8.87055e-13
2.1667e-05
7.91442e-13
2.1667e-05
7.05345e-13
2.1667e-05
6.28131e-13
2.1667e-05
5.59144e-13
2.1667e-05
4.97397e-13
2.1667e-05
4.41911e-13
2.1667e-05
3.92013e-13
2.1667e-05
3.47309e-13
2.1667e-05
3.07582e-13
2.1667e-05
2.72282e-13
2.1667e-05
2.40802e-13
2.1667e-05
2.12561e-13
2.1667e-05
1.87272e-13
2.1667e-05
1.65062e-13
2.1667e-05
1.4565e-13
2.1667e-05
1.28401e-13
2.1667e-05
1.12769e-13
2.1667e-05
9.85762e-14
2.1667e-05
8.61629e-14
2.1667e-05
7.56829e-14
2.1667e-05
6.65653e-14
2.1667e-05
5.81932e-14
2.1667e-05
5.0583e-14
2.1667e-05
4.37217e-14
2.1667e-05
3.83087e-14
2.1667e-05
3.34468e-14
2.1667e-05
2.9271e-14
2.1667e-05
2.51009e-14
2.1667e-05
2.19638e-14
2.1667e-05
1.92499e-14
2.1667e-05
1.6734e-14
2.1667e-05
1.44292e-14
2.1667e-05
1.1803e-14
2.1667e-05
1.0504e-14
2.1667e-05
8.84358e-15
2.1667e-05
8.1363e-15
2.1667e-05
6.73304e-15
2.1667e-05
5.33856e-15
2.1667e-05
5.40211e-15
2.1667e-05
4.72799e-15
2.1667e-05
2.72678e-15
2.1667e-05
3.85798e-15
2.1667e-05
2.34024e-15
2.1667e-05
6.99679e-16
2.1667e-05
4.63347e-15
2.1667e-05
5.03894e-16
2.1667e-05
1.0636e-15
2.1667e-05
2.95116e-15
2.1667e-05
-9.67248e-16
2.1667e-05
2.1124e-15
2.1667e-05
1.60523e-15
2.1667e-05
7.63752e-16
2.1667e-05
9.02328e-16
2.1667e-05
8.01212e-16
2.1667e-05
1.75422e-15
2.1667e-05
7.49539e-16
2.1667e-05
1.74457e-15
2.1667e-05
2.18171e-15
2.1667e-05
1.01037e-15
2.1667e-05
2.46545e-15
2.1667e-05
4.18173e-15
2.1667e-05
2.86244e-15
2.1667e-05
4.56643e-15
2.1667e-05
6.48376e-15
2.1667e-05
5.54761e-15
2.1667e-05
8.95826e-15
2.1667e-05
1.13423e-14
2.1667e-05
1.30579e-14
2.1667e-05
1.47801e-14
2.1667e-05
2.5241e-14
2.1667e-05
1.54439e-14
2.1667e-05
5.36955e-14
2.1667e-05
-3.15385e-15
2.1667e-05
1.39103e-13
2.1667e-05
-1.1042e-13
2.1667e-05
4.15787e-13
2.1667e-05
-5.08473e-13
2.1667e-05
1.19783e-12
2.1667e-05
-1.58672e-12
2.1667e-05
2.90902e-12
2.1667e-05
-3.49853e-12
2.1667e-05
5.04014e-12
2.1667e-05
-4.28098e-12
2.1667e-05
3.76261e-12
2.1667e-05
1.79814e-12
2.1667e-05
-5.96618e-12
2.1667e-05
1.53775e-11
2.1667e-05
-1.35601e-11
2.1667e-05
1.6004e-11
2.1667e-05
7.1681e-12
2.1667e-05
-1.70544e-12
2.16669e-05
3.99425e-11
2.16669e-05
7.68689e-12
8.84506e-11
2.3564e-05
9.8832e-09
2.35643e-05
1.05324e-08
2.3565e-05
1.15267e-08
2.3566e-05
1.28395e-08
2.35675e-05
1.42519e-08
2.35692e-05
1.55658e-08
2.35709e-05
1.64908e-08
2.35724e-05
1.7036e-08
2.35734e-05
1.74807e-08
2.35739e-05
1.758e-08
2.35745e-05
1.71612e-08
2.35753e-05
1.68897e-08
2.35762e-05
1.72191e-08
2.35771e-05
1.7768e-08
2.35781e-05
1.82778e-08
2.3579e-05
1.88373e-08
2.35797e-05
1.92094e-08
2.35804e-05
1.91938e-08
2.35812e-05
1.90719e-08
2.35819e-05
1.91193e-08
2.35827e-05
1.93507e-08
2.35836e-05
1.97216e-08
2.35843e-05
2.00784e-08
2.3585e-05
2.02124e-08
2.35857e-05
2.01841e-08
2.35866e-05
2.02649e-08
2.35875e-05
2.05161e-08
2.35883e-05
2.07286e-08
2.3589e-05
2.08065e-08
2.35898e-05
2.08768e-08
2.35908e-05
2.10301e-08
2.35918e-05
2.11843e-08
2.35928e-05
2.12263e-08
2.35939e-05
2.116e-08
2.35948e-05
2.10847e-08
2.35957e-05
2.10896e-08
2.35968e-05
2.11779e-08
2.35982e-05
2.12455e-08
2.36001e-05
2.11096e-08
2.36021e-05
2.05781e-08
2.36042e-05
1.95289e-08
2.36059e-05
1.79581e-08
2.36072e-05
1.59762e-08
2.36079e-05
1.37658e-08
2.36079e-05
1.15244e-08
2.36075e-05
9.41867e-09
2.36067e-05
7.5598e-09
2.36057e-05
5.9999e-09
2.36046e-05
4.74263e-09
2.36036e-05
3.75985e-09
2.36026e-05
3.00769e-09
2.36018e-05
2.43868e-09
2.3601e-05
2.00929e-09
2.36003e-05
1.68329e-09
2.35998e-05
1.43252e-09
2.35993e-05
1.23609e-09
2.35989e-05
1.07906e-09
2.35985e-05
9.5089e-10
2.35982e-05
8.44286e-10
2.35979e-05
7.54139e-10
2.35976e-05
6.76853e-10
2.35974e-05
6.09843e-10
2.35972e-05
5.51215e-10
2.3597e-05
4.99536e-10
2.35968e-05
4.53702e-10
2.35966e-05
4.1284e-10
2.35965e-05
3.76254e-10
2.35964e-05
3.43376e-10
2.35963e-05
3.13733e-10
2.35961e-05
2.8693e-10
2.3596e-05
2.62632e-10
2.3596e-05
2.4056e-10
2.35959e-05
2.20472e-10
2.35958e-05
2.02158e-10
2.35957e-05
1.85435e-10
2.35957e-05
1.70143e-10
2.35956e-05
1.56146e-10
2.35955e-05
1.43322e-10
2.35955e-05
1.31562e-10
2.35954e-05
1.2077e-10
2.35954e-05
1.10857e-10
2.35954e-05
1.01749e-10
2.35953e-05
9.33765e-11
2.35953e-05
8.5679e-11
2.35953e-05
7.85991e-11
2.35952e-05
7.2085e-11
2.35952e-05
6.60904e-11
2.35952e-05
6.05748e-11
2.35952e-05
5.55006e-11
2.35952e-05
5.08327e-11
2.35951e-05
4.65379e-11
2.35951e-05
4.25863e-11
2.35951e-05
3.89515e-11
2.35951e-05
3.56096e-11
2.35951e-05
3.25389e-11
2.35951e-05
2.9718e-11
2.35951e-05
2.71267e-11
2.35951e-05
2.47465e-11
2.3595e-05
2.25612e-11
2.3595e-05
2.05564e-11
2.3595e-05
1.87186e-11
2.3595e-05
1.7035e-11
2.3595e-05
1.54931e-11
2.3595e-05
1.40811e-11
2.3595e-05
1.27885e-11
2.3595e-05
1.16063e-11
2.3595e-05
1.0526e-11
2.3595e-05
9.53983e-12
2.3595e-05
8.64008e-12
2.3595e-05
7.81945e-12
2.3595e-05
7.07124e-12
2.3595e-05
6.38944e-12
2.3595e-05
5.76872e-12
2.3595e-05
5.20424e-12
2.3595e-05
4.69149e-12
2.3595e-05
4.22615e-12
2.3595e-05
3.80406e-12
2.3595e-05
3.4213e-12
2.3595e-05
3.07429e-12
2.3595e-05
2.75984e-12
2.3595e-05
2.47525e-12
2.3595e-05
2.21816e-12
2.3595e-05
1.98634e-12
2.3595e-05
1.77749e-12
2.3595e-05
1.58932e-12
2.3595e-05
1.41961e-12
2.3595e-05
1.26652e-12
2.3595e-05
1.12875e-12
2.3595e-05
1.00516e-12
2.3595e-05
8.94641e-13
2.3595e-05
7.95714e-13
2.3595e-05
7.06884e-13
2.3595e-05
6.27111e-13
2.3595e-05
5.55642e-13
2.3595e-05
4.92051e-13
2.3595e-05
4.35523e-13
2.3595e-05
3.85063e-13
2.3595e-05
3.39897e-13
2.3595e-05
2.99559e-13
2.3595e-05
2.64049e-13
2.3595e-05
2.32885e-13
2.3595e-05
2.05173e-13
2.3595e-05
1.8015e-13
2.3595e-05
1.57583e-13
2.3595e-05
1.37831e-13
2.3595e-05
1.21004e-13
2.3595e-05
1.0635e-13
2.3595e-05
9.29436e-14
2.3595e-05
8.08716e-14
2.3595e-05
7.0064e-14
2.3595e-05
6.13228e-14
2.3595e-05
5.34621e-14
2.3595e-05
4.67796e-14
2.3595e-05
4.01468e-14
2.3595e-05
3.51409e-14
2.3595e-05
3.06378e-14
2.3595e-05
2.65928e-14
2.3595e-05
2.28406e-14
2.3595e-05
1.89825e-14
2.3595e-05
1.68193e-14
2.3595e-05
1.4277e-14
2.3595e-05
1.28675e-14
2.3595e-05
1.07524e-14
2.3595e-05
8.99902e-15
2.3595e-05
8.0721e-15
2.3595e-05
7.86663e-15
2.3595e-05
4.4212e-15
2.3595e-05
5.35769e-15
2.3595e-05
4.76742e-15
2.3595e-05
9.05512e-16
2.3595e-05
6.73593e-15
2.3595e-05
1.95561e-15
2.3595e-05
6.4177e-16
2.3595e-05
4.86775e-15
2.3595e-05
-7.79697e-16
2.3595e-05
2.61044e-15
2.3595e-05
2.82836e-15
2.3595e-05
1.07787e-15
2.3595e-05
1.41426e-15
2.3595e-05
1.22285e-15
2.3595e-05
2.80316e-15
2.3595e-05
1.37765e-15
2.3595e-05
2.31769e-15
2.3595e-05
3.4282e-15
2.3595e-05
2.03909e-15
2.3595e-05
3.43258e-15
2.3595e-05
6.53885e-15
2.3595e-05
4.92317e-15
2.3595e-05
6.44791e-15
2.3595e-05
1.01068e-14
2.3595e-05
9.23289e-15
2.3595e-05
1.32224e-14
2.3595e-05
1.79261e-14
2.3595e-05
1.99836e-14
2.3595e-05
2.38397e-14
2.3595e-05
3.61827e-14
2.3595e-05
3.1301e-14
2.3595e-05
6.68151e-14
2.3595e-05
2.95909e-14
2.3595e-05
1.44818e-13
2.3595e-05
-3.01634e-14
2.3595e-05
3.73143e-13
2.3595e-05
-2.85658e-13
2.3595e-05
9.67121e-13
2.3595e-05
-9.68901e-13
2.3595e-05
2.16978e-12
2.3595e-05
-2.04475e-12
2.3595e-05
3.44202e-12
2.3595e-05
-1.84472e-12
2.3595e-05
1.93709e-12
2.3595e-05
3.66134e-12
2.3595e-05
-5.02021e-12
2.3595e-05
1.34335e-11
2.3595e-05
-7.21247e-12
2.3595e-05
1.13729e-11
2.3595e-05
1.5055e-11
2.3595e-05
-1.8144e-12
2.35949e-05
4.48729e-11
2.35949e-05
1.53522e-11
8.1933e-11
2.56492e-05
9.57016e-09
2.56496e-05
1.01391e-08
2.56503e-05
1.08299e-08
2.56512e-05
1.18898e-08
2.56524e-05
1.30871e-08
2.56537e-05
1.42078e-08
2.56552e-05
1.50767e-08
2.56566e-05
1.56238e-08
2.56579e-05
1.61826e-08
2.56587e-05
1.67061e-08
2.56593e-05
1.66241e-08
2.56599e-05
1.62513e-08
2.56607e-05
1.64059e-08
2.56616e-05
1.68716e-08
2.56627e-05
1.72385e-08
2.56637e-05
1.77578e-08
2.56646e-05
1.83259e-08
2.56653e-05
1.85113e-08
2.5666e-05
1.84073e-08
2.56667e-05
1.83747e-08
2.56676e-05
1.84857e-08
2.56685e-05
1.87628e-08
2.56694e-05
1.91877e-08
2.56702e-05
1.94842e-08
2.56709e-05
1.94566e-08
2.56718e-05
1.93822e-08
2.56727e-05
1.95598e-08
2.56736e-05
1.98405e-08
2.56744e-05
1.99707e-08
2.56753e-05
1.9983e-08
2.56763e-05
2.00383e-08
2.56774e-05
2.01402e-08
2.56784e-05
2.01817e-08
2.56795e-05
2.01253e-08
2.56805e-05
2.00253e-08
2.56817e-05
1.99364e-08
2.5683e-05
1.98558e-08
2.56845e-05
1.97218e-08
2.56862e-05
1.94323e-08
2.56879e-05
1.88746e-08
2.56895e-05
1.79674e-08
2.56907e-05
1.66952e-08
2.56916e-05
1.51157e-08
2.5692e-05
1.33405e-08
2.5692e-05
1.15028e-08
2.56917e-05
9.72575e-09
2.56912e-05
8.10224e-09
2.56905e-05
6.6866e-09
2.56897e-05
5.4974e-09
2.5689e-05
4.52633e-09
2.56882e-05
3.74869e-09
2.56875e-05
3.13276e-09
2.56869e-05
2.64639e-09
2.56863e-05
2.26081e-09
2.56858e-05
1.9523e-09
2.56853e-05
1.70228e-09
2.56849e-05
1.49675e-09
2.56845e-05
1.32534e-09
2.56842e-05
1.18047e-09
2.56839e-05
1.05656e-09
2.56836e-05
9.49505e-10
2.56834e-05
8.56202e-10
2.56832e-05
7.74289e-10
2.5683e-05
7.01925e-10
2.56828e-05
6.37653e-10
2.56826e-05
5.80302e-10
2.56825e-05
5.28922e-10
2.56823e-05
4.8273e-10
2.56822e-05
4.41071e-10
2.56821e-05
4.03397e-10
2.5682e-05
3.69241e-10
2.56819e-05
3.38211e-10
2.56818e-05
3.09968e-10
2.56817e-05
2.84218e-10
2.56816e-05
2.60703e-10
2.56816e-05
2.39202e-10
2.56815e-05
2.19521e-10
2.56814e-05
2.01489e-10
2.56814e-05
1.84953e-10
2.56813e-05
1.69777e-10
2.56813e-05
1.5584e-10
2.56812e-05
1.43033e-10
2.56812e-05
1.31261e-10
2.56812e-05
1.20438e-10
2.56811e-05
1.10483e-10
2.56811e-05
1.01324e-10
2.56811e-05
9.28964e-11
2.56811e-05
8.51422e-11
2.5681e-05
7.80082e-11
2.5681e-05
7.1445e-11
2.5681e-05
6.54066e-11
2.5681e-05
5.98514e-11
2.5681e-05
5.47419e-11
2.56809e-05
5.00447e-11
2.56809e-05
4.57281e-11
2.56809e-05
4.17624e-11
2.56809e-05
3.81194e-11
2.56809e-05
3.47737e-11
2.56809e-05
3.17023e-11
2.56809e-05
2.88847e-11
2.56809e-05
2.63019e-11
2.56809e-05
2.39355e-11
2.56809e-05
2.17681e-11
2.56809e-05
1.97835e-11
2.56809e-05
1.7967e-11
2.56808e-05
1.63058e-11
2.56808e-05
1.47878e-11
2.56808e-05
1.3402e-11
2.56808e-05
1.21375e-11
2.56808e-05
1.09843e-11
2.56808e-05
9.93293e-12
2.56808e-05
8.975e-12
2.56808e-05
8.10295e-12
2.56808e-05
7.30992e-12
2.56808e-05
6.58953e-12
2.56808e-05
5.93571e-12
2.56808e-05
5.34265e-12
2.56808e-05
4.80489e-12
2.56808e-05
4.31739e-12
2.56808e-05
3.87572e-12
2.56808e-05
3.47603e-12
2.56808e-05
3.11497e-12
2.56808e-05
2.78937e-12
2.56808e-05
2.49599e-12
2.56808e-05
2.23162e-12
2.56808e-05
1.99321e-12
2.56808e-05
1.77824e-12
2.56808e-05
1.58484e-12
2.56808e-05
1.41134e-12
2.56808e-05
1.25606e-12
2.56808e-05
1.11703e-12
2.56808e-05
9.92242e-13
2.56808e-05
8.80289e-13
2.56808e-05
7.80069e-13
2.56808e-05
6.90818e-13
2.56808e-05
6.11393e-13
2.56808e-05
5.40432e-13
2.56808e-05
4.77012e-13
2.56808e-05
4.2051e-13
2.56808e-05
3.70698e-13
2.56808e-05
3.2688e-13
2.56808e-05
2.8784e-13
2.56808e-05
2.52674e-13
2.56808e-05
2.21153e-13
2.56808e-05
1.93561e-13
2.56808e-05
1.69866e-13
2.56808e-05
1.49161e-13
2.56808e-05
1.30305e-13
2.56808e-05
1.13453e-13
2.56808e-05
9.84482e-14
2.56808e-05
8.61388e-14
2.56808e-05
7.49949e-14
2.56808e-05
6.56363e-14
2.56808e-05
5.63856e-14
2.56808e-05
4.93887e-14
2.56808e-05
4.28589e-14
2.56808e-05
3.71032e-14
2.56808e-05
3.19597e-14
2.56808e-05
2.66449e-14
2.56808e-05
2.38195e-14
2.56808e-05
2.00044e-14
2.56808e-05
1.79384e-14
2.56808e-05
1.51228e-14
2.56808e-05
1.29485e-14
2.56808e-05
1.0967e-14
2.56808e-05
1.10649e-14
2.56808e-05
6.54703e-15
2.56808e-05
6.53344e-15
2.56808e-05
7.77116e-15
2.56808e-05
1.44777e-15
2.56808e-05
8.14845e-15
2.56808e-05
4.16269e-15
2.56808e-05
9.26004e-17
2.56808e-05
6.37022e-15
2.56808e-05
3.24441e-16
2.56808e-05
2.75073e-15
2.56808e-05
3.88408e-15
2.56808e-05
1.71997e-15
2.56808e-05
1.88954e-15
2.56808e-05
1.68815e-15
2.56808e-05
3.89733e-15