/*--------------------------------*- C++ -*----------------------------------*\
| =========                 |                                                 |
| \\      /  F ield         | OpenFOAM: The Open Source CFD Toolbox           |
|  \\    /   O peration     | Version:  v1906                                 |
|   \\  /    A nd           | Web:      www.OpenFOAM.com                      |
|    \\/     M anipulation  |                                                 |
\*---------------------------------------------------------------------------*/
FoamFile
{
    version     2.0;
    format      ascii;
    class       volVectorField;
    location    "0.1";
    object      U;
}
// * * * * * * * * * * * * * * * * * * * * * * * * * * * * * * * * * * * * * //

dimensions      [0 1 -1 0 0 0 0];


internalField   nonuniform List<vector> 
4800
(
(0.999051 -0.000270804 0)
(1.00175 0.000301229 0)
(0.997779 8.33699e-05 0)
(1.00231 -0.000383796 0)
(0.99795 0.000327102 0)
(1.00156 0.000112515 0)
(0.998596 -0.000197108 0)
(1.00111 -0.000114979 0)
(0.998613 0.000104107 0)
(1.00111 0.000169588 0)
(0.998706 6.9319e-05 0)
(1.00064 -4.18634e-05 0)
(0.998855 -9.04903e-05 0)
(1.00054 -3.69764e-05 0)
(0.998798 5.6333e-05 0)
(1.00017 0.000151596 0)
(0.998849 0.000219224 0)
(1.00007 0.000274702 0)
(0.99886 0.000320498 0)
(0.999878 0.000353328 0)
(0.999973 -0.000324233 0)
(0.999762 0.000345022 0)
(1.00011 0.000119946 0)
(1.00007 -0.000453101 0)
(0.9996 0.000400008 0)
(1.00016 0.000126657 0)
(1.00014 -0.000234805 0)
(0.999667 -8.08785e-05 0)
(0.999736 0.000130065 0)
(0.999981 0.000173651 0)
(0.999848 9.57949e-05 0)
(0.99975 -3.16102e-06 0)
(0.999758 -5.37982e-05 0)
(0.999689 1.55409e-05 0)
(0.999522 0.000144599 0)
(0.999484 0.000273822 0)
(0.999571 0.000371742 0)
(0.999633 0.000458587 0)
(0.999594 0.000539836 0)
(0.999556 0.000598633 0)
(0.999997 -0.000178296 0)
(0.999744 0.000135733 0)
(1.00012 0.000158426 0)
(1.00004 -0.000284834 0)
(0.999649 0.000201826 0)
(1.00011 0.000140955 0)
(1.00016 -0.000166394 0)
(0.999675 9.5401e-06 0)
(0.999732 9.9044e-05 0)
(0.999974 7.15149e-05 0)
(0.999875 8.92579e-05 0)
(0.99975 7.79755e-05 0)
(0.999771 4.82686e-05 0)
(0.99972 9.12122e-05 0)
(0.999576 0.000198202 0)
(0.999534 0.000293549 0)
(0.999628 0.000349556 0)
(0.999697 0.000393403 0)
(0.999659 0.000447482 0)
(0.999602 0.000495846 0)
(1 -0.000168876 0)
(0.999813 0.000108021 0)
(1.00003 0.000181806 0)
(1.00005 -0.000278534 0)
(0.999759 0.000177077 0)
(1.00001 0.000182786 0)
(1.00011 -0.000173155 0)
(0.999762 7.90654e-06 0)
(0.99977 0.000144225 0)
(0.999967 8.34726e-05 0)
(0.999861 9.40417e-05 0)
(0.999721 0.000120998 0)
(0.999772 0.000100604 0)
(0.999792 0.000125329 0)
(0.999679 0.000227077 0)
(0.999606 0.00032515 0)
(0.999662 0.000370594 0)
(0.99973 0.000394306 0)
(0.999707 0.000438461 0)
(0.999649 0.00049371 0)
(1.00001 -9.68423e-05 0)
(0.99985 2.98944e-05 0)
(1 0.000145843 0)
(1.00005 -0.000142836 0)
(0.999806 7.11691e-05 0)
(0.999963 0.000161718 0)
(1.0001 -8.1713e-05 0)
(0.999819 1.1997e-05 0)
(0.999762 0.000147069 0)
(0.999945 7.91413e-05 0)
(0.999898 7.73882e-05 0)
(0.999754 0.00015836 0)
(0.999774 0.000173717 0)
(0.999817 0.000169662 0)
(0.999741 0.000230437 0)
(0.999661 0.000318179 0)
(0.999695 0.000369508 0)
(0.999771 0.00038986 0)
(0.999777 0.000423406 0)
(0.999727 0.000474741 0)
(1.00001 -7.39132e-05 0)
(0.999897 6.37901e-06 0)
(0.999974 0.000133729 0)
(1.00004 -9.70429e-05 0)
(0.999877 3.41134e-05 0)
(0.999934 0.00016596 0)
(1.00004 -3.43692e-05 0)
(0.999877 -6.11639e-06 0)
(0.999801 0.000151805 0)
(0.999924 0.000122491 0)
(0.999911 8.79442e-05 0)
(0.999784 0.000158246 0)
(0.999778 0.000204688 0)
(0.99984 0.000205795 0)
(0.999815 0.000241923 0)
(0.999742 0.000317042 0)
(0.999738 0.000375343 0)
(0.999792 0.000397557 0)
(0.999815 0.0004173 0)
(0.999788 0.000453877 0)
(1.00001 -4.33326e-05 0)
(0.999928 -9.10294e-06 0)
(0.999964 9.2512e-05 0)
(1.00002 -2.91826e-05 0)
(0.999917 1.64697e-05 0)
(0.999923 0.000123007 0)
(1.00001 2.48794e-05 0)
(0.999921 2.08875e-05 0)
(0.999831 0.000134608 0)
(0.999899 0.000139515 0)
(0.999923 0.000110648 0)
(0.999841 0.000166602 0)
(0.99981 0.000229655 0)
(0.999849 0.000241936 0)
(0.99985 0.000256796 0)
(0.999802 0.000307732 0)
(0.999786 0.000364294 0)
(0.999824 0.000394572 0)
(0.999856 0.000411869 0)
(0.999849 0.000438223 0)
(1 -2.74104e-05 0)
(0.999953 -1.17846e-05 0)
(0.999964 7.06056e-05 0)
(1 3.77263e-06 0)
(0.999947 1.23397e-05 0)
(0.999931 0.000103235 0)
(0.999984 6.14399e-05 0)
(0.99994 3.68779e-05 0)
(0.999872 0.000118041 0)
(0.999901 0.000156787 0)
(0.999929 0.000143507 0)
(0.999879 0.000171357 0)
(0.999841 0.000225088 0)
(0.999863 0.000253293 0)
(0.999885 0.000270993 0)
(0.999867 0.00030741 0)
(0.999846 0.000352933 0)
(0.999856 0.000384392 0)
(0.999879 0.000402174 0)
(0.999888 0.000422307 0)
(1 -1.55279e-05 0)
(0.99997 -7.99661e-06 0)
(0.999968 4.87564e-05 0)
(0.999994 2.54097e-05 0)
(0.999964 2.49146e-05 0)
(0.999942 8.34441e-05 0)
(0.999969 7.83625e-05 0)
(0.999955 6.6251e-05 0)
(0.999908 0.000117896 0)
(0.99991 0.000159194 0)
(0.99993 0.000161164 0)
(0.999911 0.000180379 0)
(0.999886 0.000226719 0)
(0.999894 0.000262896 0)
(0.99991 0.00028195 0)
(0.999903 0.000304285 0)
(0.999889 0.000336395 0)
(0.999895 0.000367818 0)
(0.999917 0.000390889 0)
(0.999933 0.000410363 0)
(1 -8.11957e-06 0)
(0.999982 -2.69472e-06 0)
(0.999975 3.71382e-05 0)
(0.999988 3.62421e-05 0)
(0.999974 3.52233e-05 0)
(0.999956 7.39409e-05 0)
(0.999967 8.83868e-05 0)
(0.999963 8.73463e-05 0)
(0.999935 0.000118613 0)
(0.999929 0.000156733 0)
(0.999942 0.000174314 0)
(0.999938 0.00019324 0)
(0.999923 0.000226425 0)
(0.999921 0.000257732 0)
(0.999932 0.000279267 0)
(0.999939 0.000300482 0)
(0.999939 0.000327739 0)
(0.999942 0.000355358 0)
(0.999952 0.000376359 0)
(0.999963 0.000392519 0)
(1 -3.39782e-06 0)
(0.999989 3.17733e-06 0)
(0.999981 3.0893e-05 0)
(0.999987 4.08437e-05 0)
(0.999981 4.53791e-05 0)
(0.999968 7.16582e-05 0)
(0.99997 9.15271e-05 0)
(0.99997 0.00010034 0)
(0.999957 0.000123924 0)
(0.999951 0.000156312 0)
(0.999957 0.000179149 0)
(0.999959 0.000197984 0)
(0.999954 0.000223441 0)
(0.999954 0.000251542 0)
(0.999963 0.000275317 0)
(0.999972 0.000295664 0)
(0.999975 0.000316087 0)
(0.999978 0.000336597 0)
(0.999986 0.000355088 0)
(0.999998 0.000371254 0)
(1 -4.12174e-07 0)
(0.999993 7.88225e-06 0)
(0.999987 2.8573e-05 0)
(0.999988 4.3025e-05 0)
(0.999986 5.23794e-05 0)
(0.999979 7.21519e-05 0)
(0.999979 9.27021e-05 0)
(0.99998 0.000107869 0)
(0.999975 0.000128324 0)
(0.999972 0.00015467 0)
(0.999976 0.000177971 0)
(0.99998 0.00019822 0)
(0.999982 0.000220579 0)
(0.999985 0.000244251 0)
(0.999991 0.000265319 0)
(0.999999 0.000283466 0)
(1.00001 0.000300818 0)
(1.00001 0.000318344 0)
(1.00002 0.000334904 0)
(1.00003 0.000349378 0)
(1 1.46568e-06 0)
(0.999996 1.1414e-05 0)
(0.999992 2.84099e-05 0)
(0.999992 4.39174e-05 0)
(0.999991 5.63571e-05 0)
(0.999989 7.33955e-05 0)
(0.999988 9.27255e-05 0)
(0.99999 0.000110263 0)
(0.999991 0.000129508 0)
(0.999992 0.000151963 0)
(0.999996 0.000173963 0)
(1 0.000193953 0)
(1.00001 0.000213552 0)
(1.00001 0.000233233 0)
(1.00002 0.000251751 0)
(1.00003 0.000268506 0)
(1.00004 0.000283943 0)
(1.00004 0.000298474 0)
(1.00005 0.000311897 0)
(1.00006 0.000323984 0)
(1 2.6681e-06 0)
(0.999998 1.37926e-05 0)
(0.999996 2.88465e-05 0)
(0.999996 4.40334e-05 0)
(0.999997 5.78329e-05 0)
(0.999997 7.35504e-05 0)
(0.999999 9.12527e-05 0)
(1 0.000108949 0)
(1.00001 0.000127309 0)
(1.00001 0.000147062 0)
(1.00001 0.000166775 0)
(1.00002 0.000185235 0)
(1.00003 0.000202767 0)
(1.00004 0.000219736 0)
(1.00004 0.000235715 0)
(1.00005 0.000250264 0)
(1.00006 0.000263455 0)
(1.00007 0.000275597 0)
(1.00008 0.000286835 0)
(1.00009 0.000297108 0)
(1 3.43747e-06 0)
(0.999999 1.50942e-05 0)
(0.999999 2.89634e-05 0)
(1 4.32725e-05 0)
(1 5.7094e-05 0)
(1 7.17923e-05 0)
(1.00001 8.78656e-05 0)
(1.00001 0.000104527 0)
(1.00002 0.000121569 0)
(1.00003 0.000139087 0)
(1.00003 0.000156452 0)
(1.00004 0.000172958 0)
(1.00005 0.000188446 0)
(1.00006 0.000202994 0)
(1.00007 0.000216513 0)
(1.00008 0.000228878 0)
(1.00009 0.000240113 0)
(1.0001 0.000250345 0)
(1.0001 0.000259664 0)
(1.00011 0.000268102 0)
(1 3.82094e-06 0)
(1 1.53772e-05 0)
(1 2.81864e-05 0)
(1 4.13014e-05 0)
(1.00001 5.42934e-05 0)
(1.00001 6.77737e-05 0)
(1.00002 8.21544e-05 0)
(1.00002 9.7163e-05 0)
(1.00003 0.000112454 0)
(1.00004 0.000127821 0)
(1.00005 0.000142873 0)
(1.00006 0.000157177 0)
(1.00007 0.000170518 0)
(1.00008 0.000182871 0)
(1.00009 0.000194229 0)
(1.0001 0.000204579 0)
(1.00011 0.000213941 0)
(1.00012 0.000222389 0)
(1.00013 0.000230012 0)
(1.00013 0.000236883 0)
(1 3.8448e-06 0)
(1 1.46557e-05 0)
(1 2.61662e-05 0)
(1.00001 3.77661e-05 0)
(1.00001 4.93287e-05 0)
(1.00002 6.1212e-05 0)
(1.00003 7.37041e-05 0)
(1.00003 8.66944e-05 0)
(1.00004 9.98769e-05 0)
(1.00005 0.000112959 0)
(1.00006 0.000125634 0)
(1.00007 0.000137626 0)
(1.00008 0.000148763 0)
(1.00009 0.000158992 0)
(1.0001 0.000168315 0)
(1.00011 0.000176757 0)
(1.00012 0.000184362 0)
(1.00013 0.000191198 0)
(1.00014 0.000197335 0)
(1.00015 0.000202844 0)
(1 3.57208e-06 0)
(1 1.30488e-05 0)
(1.00001 2.28343e-05 0)
(1.00001 3.2509e-05 0)
(1.00002 4.20897e-05 0)
(1.00002 5.1848e-05 0)
(1.00003 6.19857e-05 0)
(1.00004 7.24465e-05 0)
(1.00005 8.30002e-05 0)
(1.00006 9.33852e-05 0)
(1.00007 0.000103362 0)
(1.00008 0.000112742 0)
(1.0001 0.000121408 0)
(1.00011 0.000129318 0)
(1.00012 0.000136478 0)
(1.00013 0.000142922 0)
(1.00014 0.000148696 0)
(1.00015 0.000153858 0)
(1.00016 0.000158468 0)
(1.00017 0.000162584 0)
(1 3.13121e-06 0)
(1 1.11718e-05 0)
(1.00001 1.94176e-05 0)
(1.00001 2.75858e-05 0)
(1.00002 3.57371e-05 0)
(1.00003 4.40524e-05 0)
(1.00004 5.26307e-05 0)
(1.00005 6.14181e-05 0)
(1.00006 7.02395e-05 0)
(1.00007 7.88814e-05 0)
(1.00008 8.71411e-05 0)
(1.00009 9.48687e-05 0)
(1.00011 0.000101976 0)
(1.00012 0.000108438 0)
(1.00013 0.000114266 0)
(1.00014 0.000119497 0)
(1.00015 0.000124179 0)
(1.00016 0.000128361 0)
(1.00017 0.000132094 0)
(1.00018 0.000135427 0)
(1 1.44237e-06 0)
(1 5.14423e-06 0)
(1.00001 8.99065e-06 0)
(1.00002 1.28626e-05 0)
(1.00002 1.67915e-05 0)
(1.00003 2.08391e-05 0)
(1.00004 2.50211e-05 0)
(1.00006 2.93013e-05 0)
(1.00007 3.35957e-05 0)
(1.00008 3.78023e-05 0)
(1.00009 4.18201e-05 0)
(1.0001 4.55765e-05 0)
(1.00012 4.90291e-05 0)
(1.00013 5.21675e-05 0)
(1.00014 5.49997e-05 0)
(1.00015 5.75464e-05 0)
(1.00016 5.98315e-05 0)
(1.00017 6.18815e-05 0)
(1.00018 6.37204e-05 0)
(1.00019 6.53715e-05 0)
(0.998916 0.000376342 0)
(0.997993 0.000429474 0)
(0.997073 0.000505756 0)
(0.996137 0.000591882 0)
(0.995238 0.000677695 0)
(0.994426 0.000745302 0)
(0.993651 0.00078526 0)
(0.992811 0.00080203 0)
(0.991881 0.000794868 0)
(0.990936 0.000770689 0)
(0.990015 0.000754302 0)
(0.989044 0.000751329 0)
(0.988004 0.000753039 0)
(0.986997 0.000763387 0)
(0.986051 0.000785614 0)
(0.985083 0.000806435 0)
(0.98408 0.000813495 0)
(0.983087 0.000807267 0)
(0.982091 0.000795958 0)
(0.981059 0.000791607 0)
(0.980005 0.00079893 0)
(0.978947 0.000808625 0)
(0.977897 0.000809569 0)
(0.976864 0.00080523 0)
(0.97583 0.000806859 0)
(0.974759 0.000814204 0)
(0.973652 0.000816793 0)
(0.972552 0.000810796 0)
(0.971477 0.000804658 0)
(0.970401 0.000807613 0)
(0.969297 0.000818278 0)
(0.968167 0.000826104 0)
(0.967031 0.000821883 0)
(0.965903 0.00080652 0)
(0.96479 0.000791174 0)
(0.963686 0.000789267 0)
(0.962571 0.000806409 0)
(0.961424 0.000835281 0)
(0.960236 0.000858589 0)
(0.959025 0.000857494 0)
(0.95783 0.000820057 0)
(0.956705 0.000745332 0)
(0.955698 0.000642223 0)
(0.954842 0.000524978 0)
(0.954151 0.000408105 0)
(0.953618 0.000302753 0)
(0.953225 0.000215248 0)
(0.952945 0.000147415 0)
(0.952751 9.78708e-05 0)
(0.95262 6.35115e-05 0)
(0.952531 4.07315e-05 0)
(0.95247 2.61946e-05 0)
(0.952428 1.71961e-05 0)
(0.952397 1.17387e-05 0)
(0.952373 8.45131e-06 0)
(0.952354 6.44854e-06 0)
(0.952337 5.1881e-06 0)
(0.952324 4.35223e-06 0)
(0.952311 3.7604e-06 0)
(0.9523 3.31225e-06 0)
(0.952291 2.95275e-06 0)
(0.952282 2.65177e-06 0)
(0.952274 2.39245e-06 0)
(0.952267 2.16493e-06 0)
(0.95226 1.96299e-06 0)
(0.952254 1.78246e-06 0)
(0.952248 1.62032e-06 0)
(0.952243 1.47425e-06 0)
(0.952239 1.34232e-06 0)
(0.952235 1.22292e-06 0)
(0.952231 1.11468e-06 0)
(0.952227 1.01641e-06 0)
(0.952224 9.27101e-07 0)
(0.952221 8.45852e-07 0)
(0.952218 7.71855e-07 0)
(0.952216 7.04405e-07 0)
(0.952213 6.42892e-07 0)
(0.952211 5.86765e-07 0)
(0.952209 5.35516e-07 0)
(0.952208 4.8868e-07 0)
(0.952206 4.45856e-07 0)
(0.952204 4.06706e-07 0)
(0.952203 3.70931e-07 0)
(0.952202 3.3824e-07 0)
(0.952201 3.0835e-07 0)
(0.952199 2.80996e-07 0)
(0.952198 2.55959e-07 0)
(0.952198 2.33057e-07 0)
(0.952197 2.12131e-07 0)
(0.952196 1.93021e-07 0)
(0.952195 1.75564e-07 0)
(0.952195 1.59602e-07 0)
(0.952194 1.45002e-07 0)
(0.952194 1.3166e-07 0)
(0.952193 1.19485e-07 0)
(0.952193 1.0839e-07 0)
(0.952192 9.8279e-08 0)
(0.952192 8.90598e-08 0)
(0.952192 8.06484e-08 0)
(0.952191 7.29767e-08 0)
(0.952191 6.59888e-08 0)
(0.952191 5.96338e-08 0)
(0.95219 5.38601e-08 0)
(0.95219 4.86154e-08 0)
(0.95219 4.38514e-08 0)
(0.95219 3.95253e-08 0)
(0.95219 3.56006e-08 0)
(0.95219 3.20434e-08 0)
(0.952189 2.88209e-08 0)
(0.952189 2.59018e-08 0)
(0.952189 2.32588e-08 0)
(0.952189 2.08682e-08 0)
(0.952189 1.87098e-08 0)
(0.952189 1.67638e-08 0)
(0.952189 1.50098e-08 0)
(0.952189 1.34288e-08 0)
(0.952189 1.20026e-08 0)
(0.952189 1.07165e-08 0)
(0.952189 9.55905e-09 0)
(0.952189 8.5206e-09 0)
(0.952189 7.59146e-09 0)
(0.952189 6.76071e-09 0)
(0.952188 6.01675e-09 0)
(0.952188 5.34851e-09 0)
(0.952188 4.74669e-09 0)
(0.952188 4.20525e-09 0)
(0.952188 3.72176e-09 0)
(0.952188 3.29204e-09 0)
(0.952188 2.91261e-09 0)
(0.952188 2.57681e-09 0)
(0.952188 2.2779e-09 0)
(0.952188 2.01002e-09 0)
(0.952188 1.76965e-09 0)
(0.952188 1.5558e-09 0)
(0.952188 1.36625e-09 0)
(0.952188 1.19976e-09 0)
(0.952188 1.055e-09 0)
(0.952188 9.2605e-10 0)
(0.952188 8.10679e-10 0)
(0.952188 7.09714e-10 0)
(0.952188 6.17795e-10 0)
(0.952188 5.36034e-10 0)
(0.952188 4.65812e-10 0)
(0.952188 4.05857e-10 0)
(0.952188 3.55374e-10 0)
(0.952188 3.13265e-10 0)
(0.952188 2.76125e-10 0)
(0.952188 2.41192e-10 0)
(0.952188 2.08434e-10 0)
(0.952188 1.7737e-10 0)
(0.952188 1.52311e-10 0)
(0.952188 1.29495e-10 0)
(0.952188 1.09282e-10 0)
(0.952188 9.20886e-11 0)
(0.952188 7.90211e-11 0)
(0.952188 6.9017e-11 0)
(0.952188 6.19068e-11 0)
(0.952188 5.65276e-11 0)
(0.952188 4.37122e-11 0)
(0.952188 4.21798e-11 0)
(0.952188 3.34344e-11 0)
(0.952188 3.12157e-11 0)
(0.952188 2.38123e-11 0)
(0.952188 1.63153e-11 0)
(0.952188 2.34838e-11 0)
(0.952188 1.13963e-11 0)
(0.952188 1.40534e-11 0)
(0.952188 1.75629e-11 0)
(0.952188 1.03939e-13 0)
(0.952188 7.19074e-12 0)
(0.952188 1.28271e-11 0)
(0.952188 -5.18141e-12 0)
(0.952188 1.271e-11 0)
(0.952188 4.34709e-12 0)
(0.952188 -5.81961e-12 0)
(0.952188 1.18737e-11 0)
(0.952188 2.41232e-12 0)
(0.952188 3.75412e-12 0)
(0.952188 3.53392e-12 0)
(0.952188 5.34784e-12 0)
(0.952188 3.9059e-12 0)
(0.952188 7.15191e-13 0)
(0.952188 1.01277e-11 0)
(0.952188 6.34994e-12 0)
(0.952188 8.41415e-13 0)
(0.952188 1.33097e-11 0)
(0.952188 1.18001e-11 0)
(0.952188 6.34957e-12 0)
(0.952188 2.13956e-11 0)
(0.952188 1.99501e-11 0)
(0.952188 1.42617e-11 0)
(0.952188 3.71507e-11 0)
(0.952188 3.1926e-11 0)
(0.952188 4.70573e-11 0)
(0.952188 3.38616e-11 0)
(0.952188 1.17722e-10 0)
(0.952188 -4.81403e-11 0)
(0.952188 3.73903e-10 0)
(0.952188 -4.62855e-10 0)
(0.952188 1.33091e-09 0)
(0.952188 -2.17402e-09 0)
(0.952188 4.71173e-09 0)
(0.952189 -7.97367e-09 0)
(0.952188 1.47799e-08 0)
(0.952189 -2.34956e-08 0)
(0.952186 3.76166e-08 0)
(0.952192 -5.21136e-08 0)
(0.952182 6.80956e-08 0)
(0.952198 -7.11825e-08 0)
(0.952174 5.85186e-08 0)
(0.952208 -9.48916e-09 0)
(0.952161 -6.25184e-08 0)
(0.952222 1.54228e-07 0)
(0.952148 -1.86186e-07 0)
(0.95223 1.79352e-07 0)
(0.952143 -2.81601e-08 0)
(0.952221 -9.69215e-09 0)
(0.952139 2.46716e-07 0)
(0.952197 -2.5566e-08 0)
(0.952101 7.20552e-07 0)
(0.999566 0.000636128 0)
(0.999586 0.000708156 0)
(0.999575 0.00081078 0)
(0.999533 0.00092367 0)
(0.999521 0.0010365 0)
(0.999592 0.00112206 0)
(0.99973 0.00116425 0)
(0.999845 0.00117522 0)
(0.999896 0.00115663 0)
(0.999958 0.0011112 0)
(1.00005 0.00107373 0)
(1.00008 0.00106453 0)
(1.00002 0.00107064 0)
(0.999986 0.00108723 0)
(1.00001 0.00111572 0)
(1.00003 0.00113899 0)
(1.00006 0.00114147 0)
(1.00012 0.00112689 0)
(1.00017 0.00110753 0)
(1.00018 0.00109746 0)
(1.00016 0.00110556 0)
(1.00015 0.0011213 0)
(1.00015 0.00112369 0)
(1.00017 0.00111209 0)
(1.00022 0.00110595 0)
(1.00023 0.00111268 0)
(1.00022 0.00111858 0)
(1.00021 0.00111261 0)
(1.00022 0.00110178 0)
(1.00024 0.00109904 0)
(1.00025 0.00110645 0)
(1.00025 0.00111417 0)
(1.00026 0.00111131 0)
(1.00027 0.00109568 0)
(1.00028 0.00107571 0)
(1.00028 0.00106457 0)
(1.00028 0.00107037 0)
(1.0003 0.00108902 0)
(1.00033 0.00110464 0)
(1.00039 0.00109693 0)
(1.00046 0.00105068 0)
(1.00053 0.000961919 0)
(1.00059 0.000838339 0)
(1.00065 0.000695241 0)
(1.00068 0.000549788 0)
(1.0007 0.000416234 0)
(1.00071 0.000303442 0)
(1.0007 0.000214691 0)
(1.00068 0.000148956 0)
(1.00066 0.000102698 0)
(1.00063 7.14698e-05 0)
(1.0006 5.10192e-05 0)
(1.00058 3.78429e-05 0)
(1.00056 2.93418e-05 0)
(1.00053 2.37353e-05 0)
(1.00052 1.98801e-05 0)
(1.0005 1.70805e-05 0)
(1.00048 1.493e-05 0)
(1.00047 1.31969e-05 0)
(1.00046 1.17493e-05 0)
(1.00045 1.05108e-05 0)
(1.00044 9.43475e-06 0)
(1.00043 8.49082e-06 0)
(1.00042 7.6574e-06 0)
(1.00041 6.918e-06 0)
(1.0004 6.25945e-06 0)
(1.0004 5.67106e-06 0)
(1.00039 5.14392e-06 0)
(1.00039 4.67047e-06 0)
(1.00038 4.24421e-06 0)
(1.00038 3.85962e-06 0)
(1.00037 3.51202e-06 0)
(1.00037 3.19738e-06 0)
(1.00037 2.91216e-06 0)
(1.00036 2.65324e-06 0)
(1.00036 2.4179e-06 0)
(1.00036 2.20379e-06 0)
(1.00036 2.00888e-06 0)
(1.00035 1.83132e-06 0)
(1.00035 1.66943e-06 0)
(1.00035 1.52173e-06 0)
(1.00035 1.38692e-06 0)
(1.00035 1.26388e-06 0)
(1.00035 1.15156e-06 0)
(1.00034 1.04898e-06 0)
(1.00034 9.55256e-07 0)
(1.00034 8.69606e-07 0)
(1.00034 7.91362e-07 0)
(1.00034 7.19921e-07 0)
(1.00034 6.54703e-07 0)
(1.00034 5.95148e-07 0)
(1.00034 5.40742e-07 0)
(1.00034 4.91047e-07 0)
(1.00034 4.45689e-07 0)
(1.00034 4.04331e-07 0)
(1.00034 3.66643e-07 0)
(1.00033 3.32295e-07 0)
(1.00033 3.0098e-07 0)
(1.00033 2.72432e-07 0)
(1.00033 2.46429e-07 0)
(1.00033 2.22774e-07 0)
(1.00033 2.01277e-07 0)
(1.00033 1.81749e-07 0)
(1.00033 1.64006e-07 0)
(1.00033 1.47888e-07 0)
(1.00033 1.33254e-07 0)
(1.00033 1.19981e-07 0)
(1.00033 1.07956e-07 0)
(1.00033 9.7069e-08 0)
(1.00033 8.72151e-08 0)
(1.00033 7.83002e-08 0)
(1.00033 7.0241e-08 0)
(1.00033 6.29629e-08 0)
(1.00033 5.63958e-08 0)
(1.00033 5.0474e-08 0)
(1.00033 4.51374e-08 0)
(1.00033 4.03319e-08 0)
(1.00033 3.60091e-08 0)
(1.00033 3.21249e-08 0)
(1.00033 2.86366e-08 0)
(1.00033 2.55042e-08 0)
(1.00033 2.26932e-08 0)
(1.00033 2.01731e-08 0)
(1.00033 1.79176e-08 0)
(1.00033 1.59016e-08 0)
(1.00033 1.40988e-08 0)
(1.00033 1.24875e-08 0)
(1.00033 1.10489e-08 0)
(1.00033 9.76861e-09 0)
(1.00033 8.63386e-09 0)
(1.00033 7.62673e-09 0)
(1.00033 6.72814e-09 0)
(1.00033 5.9237e-09 0)
(1.00033 5.20626e-09 0)
(1.00033 4.57445e-09 0)
(1.00033 4.022e-09 0)
(1.00033 3.53613e-09 0)
(1.00033 3.10106e-09 0)
(1.00033 2.70946e-09 0)
(1.00033 2.36417e-09 0)
(1.00033 2.06435e-09 0)
(1.00033 1.807e-09 0)
(1.00033 1.58048e-09 0)
(1.00033 1.37578e-09 0)
(1.00033 1.19541e-09 0)
(1.00033 1.04272e-09 0)
(1.00033 9.10911e-10 0)
(1.00033 7.91736e-10 0)
(1.00033 6.82436e-10 0)
(1.00033 5.81697e-10 0)
(1.00033 5.0349e-10 0)
(1.00033 4.34714e-10 0)
(1.00033 3.77397e-10 0)
(1.00033 3.20746e-10 0)
(1.00033 2.7819e-10 0)
(1.00033 2.44822e-10 0)
(1.00033 2.13508e-10 0)
(1.00033 1.86664e-10 0)
(1.00033 1.48324e-10 0)
(1.00033 1.30984e-10 0)
(1.00033 1.08113e-10 0)
(1.00033 9.8742e-11 0)
(1.00033 7.91185e-11 0)
(1.00033 6.12873e-11 0)
(1.00033 6.83426e-11 0)
(1.00033 5.22559e-11 0)
(1.00033 3.5461e-11 0)
(1.00033 5.05903e-11 0)
(1.00033 1.89561e-11 0)
(1.00033 1.0134e-11 0)
(1.00033 5.38647e-11 0)
(1.00033 -2.20712e-12 0)
(1.00033 1.97101e-11 0)
(1.00033 3.10872e-11 0)
(1.00033 -1.54178e-11 0)
(1.00033 2.85179e-11 0)
(1.00033 1.61882e-11 0)
(1.00033 9.14639e-12 0)
(1.00033 1.07583e-11 0)
(1.00033 1.07478e-11 0)
(1.00033 1.70264e-11 0)
(1.00033 5.46353e-12 0)
(1.00033 2.26132e-11 0)
(1.00033 2.33476e-11 0)
(1.00033 6.99727e-12 0)
(1.00033 2.84795e-11 0)
(1.00033 4.10599e-11 0)
(1.00033 2.46365e-11 0)
(1.00033 5.18692e-11 0)
(1.00033 6.6366e-11 0)
(1.00033 5.06733e-11 0)
(1.00033 9.49443e-11 0)
(1.00033 1.07955e-10 0)
(1.00033 1.31674e-10 0)
(1.00033 1.32165e-10 0)
(1.00033 2.78211e-10 0)
(1.00033 6.39604e-11 0)
(1.00033 6.82203e-10 0)
(1.00033 -3.65333e-10 0)
(1.00033 2.01663e-09 0)
(1.00033 -2.39588e-09 0)
(1.00033 6.51228e-09 0)
(1.00033 -9.47863e-09 0)
(1.00033 1.94353e-08 0)
(1.00033 -2.82911e-08 0)
(1.00033 4.78424e-08 0)
(1.00033 -6.17818e-08 0)
(1.00032 8.37324e-08 0)
(1.00034 -7.92496e-08 0)
(1.00031 6.62586e-08 0)
(1.00035 8.39729e-09 0)
(1.0003 -8.6564e-08 0)
(1.00037 2.1573e-07 0)
(1.00029 -2.23847e-07 0)
(1.00037 2.37739e-07 0)
(1.00029 2.7687e-08 0)
(1.00036 -1.30403e-08 0)
(1.00028 4.32316e-07 0)
(1.00034 4.36078e-08 0)
(1.00025 1.13209e-06 0)
(0.999606 0.000524668 0)
(0.999642 0.000553019 0)
(0.999642 0.000602343 0)
(0.999603 0.000666194 0)
(0.999582 0.000732507 0)
(0.999627 0.000788303 0)
(0.999741 0.000817309 0)
(0.999846 0.000827785 0)
(0.999886 0.000834698 0)
(0.999945 0.000823388 0)
(1.00007 0.000791773 0)
(1.00013 0.000775999 0)
(1.0001 0.000788712 0)
(1.00008 0.000808452 0)
(1.00011 0.000828209 0)
(1.00013 0.000848716 0)
(1.00016 0.000856074 0)
(1.00023 0.000845718 0)
(1.0003 0.000832654 0)
(1.00034 0.00082788 0)
(1.00035 0.000833525 0)
(1.00036 0.000847123 0)
(1.00036 0.000856939 0)
(1.00041 0.00085325 0)
(1.00048 0.000844232 0)
(1.00053 0.000843798 0)
(1.00054 0.000850148 0)
(1.00055 0.000852182 0)
(1.00059 0.00084857 0)
(1.00064 0.000846727 0)
(1.00068 0.000848885 0)
(1.00071 0.000849398 0)
(1.00075 0.000843638 0)
(1.0008 0.000833595 0)
(1.00084 0.000825153 0)
(1.00088 0.000822573 0)
(1.00092 0.000825004 0)
(1.00097 0.000826057 0)
(1.00104 0.000816165 0)
(1.00113 0.000786694 0)
(1.00122 0.000733677 0)
(1.0013 0.000659269 0)
(1.00137 0.000570534 0)
(1.00141 0.000476703 0)
(1.00142 0.000386396 0)
(1.00141 0.000305827 0)
(1.00139 0.000238223 0)
(1.00135 0.000184207 0)
(1.0013 0.000142628 0)
(1.00126 0.000111437 0)
(1.00121 8.83688e-05 0)
(1.00117 7.13573e-05 0)
(1.00114 5.87181e-05 0)
(1.00111 4.91797e-05 0)
(1.00108 4.18303e-05 0)
(1.00106 3.60371e-05 0)
(1.00104 3.13679e-05 0)
(1.00103 2.7529e-05 0)
(1.00101 2.43187e-05 0)
(1.001 2.15964e-05 0)
(1.00099 1.92613e-05 0)
(1.00098 1.72397e-05 0)
(1.00097 1.54762e-05 0)
(1.00096 1.39279e-05 0)
(1.00095 1.25612e-05 0)
(1.00094 1.1349e-05 0)
(1.00094 1.02697e-05 0)
(1.00093 9.30539e-06 0)
(1.00093 8.44125e-06 0)
(1.00092 7.66472e-06 0)
(1.00092 6.96526e-06 0)
(1.00091 6.33395e-06 0)
(1.00091 5.76319e-06 0)
(1.0009 5.24635e-06 0)
(1.0009 4.77761e-06 0)
(1.0009 4.35191e-06 0)
(1.0009 3.96493e-06 0)
(1.00089 3.61289e-06 0)
(1.00089 3.29241e-06 0)
(1.00089 3.00042e-06 0)
(1.00089 2.73419e-06 0)
(1.00089 2.49132e-06 0)
(1.00088 2.26971e-06 0)
(1.00088 2.06746e-06 0)
(1.00088 1.88283e-06 0)
(1.00088 1.71422e-06 0)
(1.00088 1.56023e-06 0)
(1.00088 1.41961e-06 0)
(1.00088 1.29123e-06 0)
(1.00088 1.17403e-06 0)
(1.00088 1.06702e-06 0)
(1.00088 9.69295e-07 0)
(1.00087 8.80089e-07 0)
(1.00087 7.98708e-07 0)
(1.00087 7.24514e-07 0)
(1.00087 6.56889e-07 0)
(1.00087 5.95246e-07 0)
(1.00087 5.39056e-07 0)
(1.00087 4.87856e-07 0)
(1.00087 4.41249e-07 0)
(1.00087 3.98867e-07 0)
(1.00087 3.60353e-07 0)
(1.00087 3.2536e-07 0)
(1.00087 2.93564e-07 0)
(1.00087 2.64678e-07 0)
(1.00087 2.38455e-07 0)
(1.00087 2.14676e-07 0)
(1.00087 1.93136e-07 0)
(1.00087 1.73641e-07 0)
(1.00087 1.56003e-07 0)
(1.00087 1.40052e-07 0)
(1.00087 1.2563e-07 0)
(1.00087 1.12599e-07 0)
(1.00087 1.00835e-07 0)
(1.00087 9.0227e-08 0)
(1.00087 8.06755e-08 0)
(1.00087 7.20861e-08 0)
(1.00087 6.43667e-08 0)
(1.00087 5.74279e-08 0)
(1.00087 5.11866e-08 0)
(1.00087 4.55723e-08 0)
(1.00087 4.05309e-08 0)
(1.00087 3.60178e-08 0)
(1.00087 3.19894e-08 0)
(1.00087 2.83973e-08 0)
(1.00087 2.5188e-08 0)
(1.00087 2.23144e-08 0)
(1.00087 1.97425e-08 0)
(1.00087 1.7449e-08 0)
(1.00087 1.54146e-08 0)
(1.00087 1.361e-08 0)
(1.00087 1.20033e-08 0)
(1.00087 1.057e-08 0)
(1.00087 9.29571e-09 0)
(1.00087 8.17461e-09 0)
(1.00087 7.18848e-09 0)
(1.00087 6.31204e-09 0)
(1.00087 5.52692e-09 0)
(1.00087 4.82646e-09 0)
(1.00087 4.21623e-09 0)
(1.00087 3.69548e-09 0)
(1.00087 3.24408e-09 0)
(1.00087 2.83617e-09 0)
(1.00087 2.46171e-09 0)
(1.00087 2.13026e-09 0)
(1.00087 1.85075e-09 0)
(1.00087 1.61316e-09 0)
(1.00087 1.39994e-09 0)
(1.00087 1.20759e-09 0)
(1.00087 1.03621e-09 0)
(1.00087 9.01372e-10 0)
(1.00087 7.83897e-10 0)
(1.00087 6.83407e-10 0)
(1.00087 5.82165e-10 0)
(1.00087 5.07124e-10 0)
(1.00087 4.4268e-10 0)
(1.00087 3.82157e-10 0)
(1.00087 3.23807e-10 0)
(1.00087 2.63857e-10 0)
(1.00087 2.26793e-10 0)
(1.00087 1.92482e-10 0)
(1.00087 1.7542e-10 0)
(1.00087 1.43639e-10 0)
(1.00087 1.19119e-10 0)
(1.00087 1.11659e-10 0)
(1.00087 1.04818e-10 0)
(1.00087 5.52113e-11 0)
(1.00087 7.60662e-11 0)
(1.00087 5.45052e-11 0)
(1.00087 9.87609e-12 0)
(1.00087 9.64073e-11 0)
(1.00087 1.83129e-11 0)
(1.00087 1.25252e-11 0)
(1.00087 6.51254e-11 0)
(1.00087 -1.70265e-11 0)
(1.00087 3.57441e-11 0)
(1.00087 3.61676e-11 0)
(1.00087 1.29153e-11 0)
(1.00087 1.71649e-11 0)
(1.00087 1.37798e-11 0)
(1.00087 3.32264e-11 0)
(1.00087 1.47108e-11 0)
(1.00087 2.98803e-11 0)
(1.00087 4.19004e-11 0)
(1.00087 1.97978e-11 0)
(1.00087 3.91684e-11 0)
(1.00087 7.63314e-11 0)
(1.00087 5.39943e-11 0)
(1.00087 7.6211e-11 0)
(1.00087 1.16311e-10 0)
(1.00087 9.83573e-11 0)
(1.00087 1.46279e-10 0)
(1.00087 1.98182e-10 0)
(1.00087 2.19267e-10 0)
(1.00087 2.57842e-10 0)
(1.00087 3.94352e-10 0)
(1.00087 3.21061e-10 0)
(1.00087 7.3572e-10 0)
(1.00087 2.88265e-10 0)
(1.00087 1.62127e-09 0)
(1.00087 -5.29031e-10 0)
(1.00087 4.25454e-09 0)
(1.00087 -3.68368e-09 0)
(1.00087 1.11375e-08 0)
(1.00087 -1.2028e-08 0)
(1.00087 2.52364e-08 0)
(1.00087 -2.56072e-08 0)
(1.00086 4.08143e-08 0)
(1.00088 -2.60516e-08 0)
(1.00085 2.51415e-08 0)
(1.00089 3.43824e-08 0)
(1.00084 -5.57246e-08 0)
(1.0009 1.47634e-07 0)
(1.00083 -9.62349e-08 0)
(1.00091 1.35878e-07 0)
(1.00082 1.3623e-07 0)
(1.0009 -2.14821e-08 0)
(1.00082 4.51631e-07 0)
(1.00088 1.48414e-07 0)
(1.00078 8.87071e-07 0)
(0.99964 0.000535376 0)
(0.999687 0.000560863 0)
(0.999721 0.000597615 0)
(0.999702 0.00065803 0)
(0.99968 0.00072524 0)
(0.999709 0.000788801 0)
(0.999795 0.000834674 0)
(0.99989 0.000858256 0)
(0.999924 0.000886762 0)
(0.999946 0.000913412 0)
(1.00004 0.000901351 0)
(1.00013 0.000877255 0)
(1.00012 0.000885956 0)
(1.00011 0.000906397 0)
(1.00014 0.000917468 0)
(1.00017 0.000938025 0)
(1.00018 0.000962238 0)
(1.00023 0.000965094 0)
(1.0003 0.000954471 0)
(1.00034 0.000948285 0)
(1.00037 0.000947397 0)
(1.00038 0.000954055 0)
(1.00038 0.000969462 0)
(1.00041 0.000978004 0)
(1.00048 0.000969969 0)
(1.00053 0.000960771 0)
(1.00055 0.000964035 0)
(1.00056 0.000971016 0)
(1.00059 0.000970001 0)
(1.00065 0.000964315 0)
(1.00069 0.000961909 0)
(1.00072 0.00096198 0)
(1.00076 0.000958784 0)
(1.0008 0.00095053 0)
(1.00084 0.000940146 0)
(1.00088 0.000930903 0)
(1.00093 0.000923475 0)
(1.00098 0.000915292 0)
(1.00105 0.000901068 0)
(1.00112 0.000874459 0)
(1.00118 0.000830576 0)
(1.00124 0.000768062 0)
(1.00128 0.000689626 0)
(1.0013 0.000601051 0)
(1.00131 0.000509401 0)
(1.00131 0.000421271 0)
(1.00129 0.000341599 0)
(1.00126 0.000273204 0)
(1.00123 0.00021694 0)
(1.0012 0.000172191 0)
(1.00117 0.000137476 0)
(1.00115 0.000110965 0)
(1.00112 9.0848e-05 0)
(1.0011 7.55458e-05 0)
(1.00108 6.37856e-05 0)
(1.00106 5.46008e-05 0)
(1.00104 4.72877e-05 0)
(1.00102 4.13473e-05 0)
(1.00101 3.64309e-05 0)
(1.001 3.22947e-05 0)
(1.00099 2.87671e-05 0)
(1.00098 2.5725e-05 0)
(1.00097 2.3078e-05 0)
(1.00096 2.07582e-05 0)
(1.00095 1.87129e-05 0)
(1.00094 1.69005e-05 0)
(1.00094 1.52881e-05 0)
(1.00093 1.38483e-05 0)
(1.00093 1.25588e-05 0)
(1.00092 1.14006e-05 0)
(1.00092 1.03578e-05 0)
(1.00091 9.41698e-06 0)
(1.00091 8.56673e-06 0)
(1.00091 7.79702e-06 0)
(1.0009 7.09915e-06 0)
(1.0009 6.46559e-06 0)
(1.0009 5.88985e-06 0)
(1.0009 5.36623e-06 0)
(1.00089 4.88963e-06 0)
(1.00089 4.45546e-06 0)
(1.00089 4.05964e-06 0)
(1.00089 3.69863e-06 0)
(1.00089 3.3693e-06 0)
(1.00089 3.06878e-06 0)
(1.00089 2.79448e-06 0)
(1.00088 2.54403e-06 0)
(1.00088 2.31533e-06 0)
(1.00088 2.1065e-06 0)
(1.00088 1.91585e-06 0)
(1.00088 1.74181e-06 0)
(1.00088 1.58292e-06 0)
(1.00088 1.43786e-06 0)
(1.00088 1.30548e-06 0)
(1.00088 1.18471e-06 0)
(1.00088 1.0746e-06 0)
(1.00088 9.74219e-07 0)
(1.00088 8.82729e-07 0)
(1.00088 7.99354e-07 0)
(1.00088 7.2341e-07 0)
(1.00087 6.54287e-07 0)
(1.00087 5.91423e-07 0)
(1.00087 5.34284e-07 0)
(1.00087 4.82362e-07 0)
(1.00087 4.35188e-07 0)
(1.00087 3.92342e-07 0)
(1.00087 3.53455e-07 0)
(1.00087 3.18197e-07 0)
(1.00087 2.86262e-07 0)
(1.00087 2.57359e-07 0)
(1.00087 2.3121e-07 0)
(1.00087 2.07558e-07 0)
(1.00087 1.86171e-07 0)
(1.00087 1.66843e-07 0)
(1.00087 1.494e-07 0)
(1.00087 1.3368e-07 0)
(1.00087 1.19535e-07 0)
(1.00087 1.06814e-07 0)
(1.00087 9.53743e-08 0)
(1.00087 8.50796e-08 0)
(1.00087 7.58155e-08 0)
(1.00087 6.74894e-08 0)
(1.00087 6.00263e-08 0)
(1.00087 5.33557e-08 0)
(1.00087 4.74006e-08 0)
(1.00087 4.20796e-08 0)
(1.00087 3.7315e-08 0)
(1.00087 3.30456e-08 0)
(1.00087 2.92301e-08 0)
(1.00087 2.58347e-08 0)
(1.00087 2.28233e-08 0)
(1.00087 2.01502e-08 0)
(1.00087 1.77707e-08 0)
(1.00087 1.56531e-08 0)
(1.00087 1.37737e-08 0)
(1.00087 1.21128e-08 0)
(1.00087 1.06411e-08 0)
(1.00087 9.33099e-09 0)
(1.00087 8.16725e-09 0)
(1.00087 7.14322e-09 0)
(1.00087 6.2573e-09 0)
(1.00087 5.48919e-09 0)
(1.00087 4.80499e-09 0)
(1.00087 4.18417e-09 0)
(1.00087 3.62625e-09 0)
(1.00087 3.1431e-09 0)
(1.00087 2.73735e-09 0)
(1.00087 2.38915e-09 0)
(1.00087 2.07389e-09 0)
(1.00087 1.7928e-09 0)