/*--------------------------------*- C++ -*----------------------------------*\
| =========                 |                                                 |
| \\      /  F ield         | OpenFOAM: The Open Source CFD Toolbox           |
|  \\    /   O peration     | Version:  v1906                                 |
|   \\  /    A nd           | Web:      www.OpenFOAM.com                      |
|    \\/     M anipulation  |                                                 |
\*---------------------------------------------------------------------------*/
FoamFile
{
    version     2.0;
    format      ascii;
    class       volScalarField;
    location    "0.1";
    object      p;
}
// * * * * * * * * * * * * * * * * * * * * * * * * * * * * * * * * * * * * * //

dimensions      [0 2 -2 0 0 0 0];


internalField   nonuniform List<scalar> 
800
(
1.76019e-08
0.00913005
0.0216618
0.0341385
0.0474654
0.0615807
0.076787
0.0934441
0.112059
0.133339
0.158272
0.188254
0.225237
0.272121
0.333478
0.413655
0.514742
0.682234
1.05435
1.20265
-0.00620597
0.00129735
0.0129376
0.0246716
0.0372518
0.0504967
0.0646347
0.0799304
0.0967567
0.115612
0.137145
0.162176
0.191664
0.226635
0.268225
0.315328
0.357572
0.390943
0.439225
0.258086
-0.0177334
-0.0127321
-0.00259359
0.00787839
0.0191357
0.0308541
0.0431179
0.0560256
0.0697116
0.084308
0.0998818
0.116317
0.133062
0.148674
0.160251
0.161485
0.138382
0.0744846
-0.0424087
-0.29251
-0.0310374
-0.0280007
-0.0193083
-0.0101368
-0.0003037
0.00975231
0.0199567
0.0302248
0.0404299
0.0503171
0.0593781
0.0666554
0.070432
0.0677997
0.0542252
0.0228603
-0.036066
-0.132103
-0.273912
-0.483095
-0.0460551
-0.0444048
-0.0370737
-0.0292273
-0.0209121
-0.0126589
-0.00470433
0.00267791
0.00910088
0.013952
0.0162467
0.0144427
0.00622137
-0.0116981
-0.0435785
-0.0944916
-0.169591
-0.272122
-0.403385
-0.56429
-0.063302
-0.0626398
-0.0566515
-0.0502018
-0.0435457
-0.0372885
-0.0318236
-0.0276059
-0.0252541
-0.0256641
-0.0301298
-0.0404559
-0.059018
-0.0886936
-0.132576
-0.193466
-0.273037
-0.370729
-0.483576
-0.606192
-0.0830233
-0.083022
-0.0783597
-0.0733765
-0.068512
-0.0644255
-0.0616463
-0.0607799
-0.0626145
-0.0682085
-0.0789559
-0.0965984
-0.123141
-0.160622
-0.21072
-0.274253
-0.350646
-0.437535
-0.530907
-0.625457
-0.10534
-0.105711
-0.102337
-0.0988719
-0.0958987
-0.0941066
-0.0941221
-0.0966487
-0.102554
-0.112918
-0.129028
-0.152314
-0.184169
-0.225688
-0.277325
-0.338582
-0.407817
-0.482282
-0.558482
-0.632657
-0.130358
-0.130865
-0.128722
-0.126806
-0.125783
-0.126343
-0.129156
-0.134956
-0.14459
-0.159023
-0.179287
-0.20636
-0.240982
-0.283439
-0.333355
-0.38958
-0.450222
-0.512861
-0.574907
-0.633961
-0.15816
-0.15863
-0.157642
-0.157281
-0.158216
-0.161104
-0.166599
-0.175388
-0.188207
-0.205808
-0.228884
-0.257944
-0.293169
-0.334282
-0.380469
-0.430405
-0.482382
-0.534531
-0.585091
-0.632603
-0.188791
-0.189106
-0.189183
-0.190348
-0.193189
-0.19829
-0.206227
-0.217574
-0.232885
-0.252651
-0.277215
-0.306685
-0.340843
-0.379102
-0.420511
-0.463845
-0.507742
-0.550871
-0.592096
-0.630555
-0.222242
-0.222331
-0.223365
-0.225989
-0.230622
-0.237731
-0.247764
-0.261128
-0.278163
-0.299091
-0.323958
-0.352579
-0.384507
-0.419046
-0.455297
-0.492254
-0.528915
-0.564384
-0.597957
-0.629139
-0.258438
-0.258267
-0.260138
-0.264117
-0.270372
-0.279212
-0.290918
-0.305705
-0.323694
-0.344877
-0.369077
-0.395937
-0.424922
-0.455358
-0.48649
-0.51756
-0.547871
-0.57685
-0.604078
-0.629287
-0.297221
-0.296779
-0.299368
-0.304573
-0.312243
-0.322497
-0.335426
-0.351051
-0.3693
-0.389988
-0.412804
-0.437316
-0.463002
-0.489282
-0.515576
-0.541348
-0.566142
-0.589611
-0.611523
-0.631743
-0.338325
-0.337624
-0.340835
-0.347141
-0.356022
-0.367376
-0.381106
-0.397056
-0.415001
-0.434642
-0.455606
-0.477463
-0.499755
-0.522029
-0.543869
-0.564922
-0.584914
-0.603656
-0.621038
-0.637016
-0.381333
-0.380394
-0.384187
-0.39153
-0.401486
-0.413708
-0.427922
-0.443819
-0.461069
-0.479316
-0.498188
-0.517308
-0.536315
-0.554886
-0.572748
-0.589689
-0.605562
-0.620279
-0.633807
-0.646152
-0.425603
-0.42444
-0.428851
-0.437276
-0.448303
-0.461328
-0.475908
-0.491614
-0.508036
-0.524792
-0.541531
-0.557945
-0.573777
-0.588827
-0.602958
-0.616084
-0.628172
-0.639224
-0.649273
-0.658374
-0.470347
-0.469179
-0.474454
-0.484148
-0.496337
-0.510174
-0.525107
-0.540644
-0.556361
-0.571901
-0.586966
-0.601319
-0.614777
-0.62722
-0.638577
-0.648825
-0.65798
-0.66609
-0.673223
-0.67945
-0.514614
-0.51489
-0.522378
-0.534322
-0.548314
-0.563292
-0.578603
-0.59371
-0.608194
-0.621757
-0.634206
-0.645444
-0.655446
-0.664247
-0.671923
-0.678574
-0.684313
-0.689248
-0.693489
-0.697154
-0.552257
-0.556116
-0.567884
-0.584078
-0.602118
-0.620867
-0.639624
-0.657774
-0.674806
-0.690331
-0.704091
-0.715944
-0.725854
-0.733874
-0.740121
-0.744758
-0.747976
-0.749979
-0.75097
-0.751073
-1.29887
-2.34682
-2.29323
-2.05821
-1.8573
-1.69928
-1.5757
-1.47736
-1.39663
-1.32837
-1.26921
-1.21681
-1.1695
-1.12602
-1.08544
-1.0471
-1.01095
-0.976141
-0.947655
-0.91386
-0.895211
-1.5645
-1.73271
-1.72559
-1.66406
-1.58357
-1.50272
-1.42876
-1.36278
-1.30398
-1.25122
-1.20335
-1.15938
-1.11845
-1.07991
-1.04327
-1.0086
-0.975039
-0.947729
-0.914466
-0.788373
-1.18544
-1.39182
-1.47577
-1.49052
-1.46591
-1.42286
-1.37354
-1.32367
-1.27566
-1.23033
-1.18775
-1.14766
-1.10969
-1.07349
-1.03876
-1.00571
-0.973483
-0.947429
-0.914617
-0.763217
-1.02202
-1.19997
-1.30161
-1.34819
-1.35709
-1.34254
-1.31493
-1.28083
-1.24411
-1.20688
-1.17019
-1.13446
-1.09981
-1.0662
-1.03355
-1.00222
-0.971412
-0.946568
-0.914302
-0.746461
-0.922923
-1.06559
-1.16527
-1.22629
-1.25603
-1.26258
-1.25332
-1.23399
-1.20867
-1.18008
-1.14989
-1.1191
-1.08824
-1.05759
-1.02731
-0.997874
-0.968659
-0.945042
-0.913527
-0.732448
-0.85716
-0.969202
-1.05901
-1.12384
-1.16497
-1.18591
-1.19105
-1.1846
-1.17006
-1.15016
-1.12683
-1.10142
-1.07476
-1.04744
-1.01982
-0.992492
-0.965054
-0.942716
-0.912172
-0.718405
-0.811057
-0.899539
-0.977041
-1.03938
-1.08508
-1.11473
-1.1303
-1.13431
-1.12935
-1.1177
-1.10125
-1.08143
-1.05929
-1.03559
-1.0109
-0.985876
-0.960388
-0.939397
-0.91002
-0.704093
-0.775728
-0.846626
-0.912451
-0.969557
-1.01563
-1.04977
-1.07229
-1.08432
-1.08741
-1.08324
-1.07338
-1.05917
-1.04171
-1.02185
-1.00029
-0.977761
-0.954381
-0.934818
-0.906762
-0.690328
-0.747165
-0.804737
-0.860367
-0.911328
-0.955379
-0.991041
-1.01768
-1.03542
-1.04493
-1.04721
-1.04341
-1.03462
-1.02184
-1.00594
-0.987679
-0.967793
-0.946655
-0.928608
-0.901961
-0.677808
-0.723641
-0.770833
-0.817742
-0.862463
-0.903152
-0.938277
-0.966788
-0.988178
-1.00245
-1.01001
-1.0115
-1.00773
-0.999483
-0.987543
-0.972644
-0.955509
-0.936711
-0.92026
-0.895005
-0.667128
-0.704401
-0.74325
-0.782674
-0.82139
-0.858006
-0.891185
-0.919795
-0.943026
-0.960442
-0.971969
-0.977829
-0.978452
-0.97439
-0.966249
-0.954674
-0.940323
-0.923908
-0.909097
-0.885104
-0.658805
-0.689172
-0.721117
-0.754036
-0.787089
-0.819282
-0.849554
-0.876879
-0.900372
-0.919373
-0.93349
-0.942594
-0.946784
-0.946334
-0.941641
-0.933197
-0.921545
-0.907468
-0.894269
-0.871272
-0.65328
-0.677921
-0.704016
-0.731207
-0.758959
-0.78659
-0.81331
-0.83828
-0.860683
-0.879801
-0.895078
-0.906149
-0.912852
-0.9152
-0.913364
-0.907648
-0.898441
-0.886521
-0.874779
-0.852363
-0.650979
-0.670768
-0.691811
-0.7139
-0.736699
-0.759755
-0.782507
-0.804314
-0.824498
-0.842394
-0.857408
-0.869061
-0.877019
-0.881095
-0.881254
-0.877603
-0.870352
-0.86021
-0.849585
-0.82717
-0.652193
-0.667808
-0.684437
-0.701955
-0.720148
-0.738714
-0.757268
-0.775341
-0.792408
-0.807916
-0.821322
-0.832136
-0.839949
-0.844456
-0.845472
-0.842927
-0.836858
-0.827856
-0.81776
-0.794593
-0.657805
-0.669736
-0.682401
-0.695722
-0.709558
-0.723707
-0.737904
-0.751816
-0.765054
-0.777188
-0.787771
-0.796368
-0.802581
-0.806072
-0.806577
-0.803908
-0.797958
-0.789182
-0.778767
-0.75394
-0.666934
-0.675667
-0.684876
-0.694479
-0.704359
-0.714357
-0.724272
-0.733855
-0.74282
-0.750851
-0.757613
-0.762772
-0.76601
-0.767032
-0.765579
-0.761413
-0.754333
-0.744661
-0.732865
-0.705371
-0.685061
-0.69055
-0.696145
-0.701796
-0.70741
-0.712874
-0.718043
-0.722746
-0.726783
-0.729933
-0.731958
-0.732619
-0.731681
-0.728916
-0.724103
-0.716997
-0.707348
-0.695381
-0.680835
-0.649464
-0.700509
-0.70381
-0.707034
-0.710044
-0.712705
-0.714863
-0.716339
-0.716941
-0.71647
-0.714734
-0.711555
-0.706788
-0.700317
-0.692061
-0.681943
-0.669848
-0.655628
-0.639482
-0.620361
-0.583873
-0.750273
-0.748591
-0.746133
-0.742875
-0.738694
-0.733463
-0.727073
-0.71943
-0.710458
-0.700113
-0.688393
-0.675345
-0.66107
-0.645707
-0.629396
-0.612205
-0.594092
-0.574789
-0.551166
-0.510266
)
;

boundaryField
{
    zeroGradient_plane
    {
        type            zeroGradient;
    }
    inlet
    {
        type            zeroGradient;
    }
    plate
    {
        type            zeroGradient;
    }
    frontAndBack
    {
        type            empty;
    }
}


// ************************************************************************* //
