/*--------------------------------*- C++ -*----------------------------------*\
| =========                 |                                                 |
| \\      /  F ield         | OpenFOAM: The Open Source CFD Toolbox           |
|  \\    /   O peration     | Version:  v1906                                 |
|   \\  /    A nd           | Web:      www.OpenFOAM.com                      |
|    \\/     M anipulation  |                                                 |
\*---------------------------------------------------------------------------*/
FoamFile
{
    version     2.0;
    format      ascii;
    class       surfaceScalarField;
    location    "0.1";
    object      phi;
}
// * * * * * * * * * * * * * * * * * * * * * * * * * * * * * * * * * * * * * //

dimensions      [0 3 -1 0 0 0 0];
oriented        oriented;


internalField   nonuniform List<scalar> 
1540
(
1.97843e-05
2.49653e-06
1.96368e-05
7.8382e-06
1.94859e-05
1.25163e-05
1.93373e-05
1.64839e-05
1.91923e-05
1.98036e-05
1.90505e-05
2.25627e-05
1.8911e-05
2.48487e-05
1.87725e-05
2.67378e-05
1.86335e-05
2.82863e-05
1.84917e-05
2.95266e-05
1.83441e-05
3.04638e-05
1.81865e-05
3.1077e-05
1.80127e-05
3.13211e-05
1.78131e-05
3.11314e-05
1.7572e-05
3.04257e-05
1.72665e-05
2.91043e-05
1.68521e-05
2.70584e-05
1.61953e-05
2.41813e-05
1.49992e-05
2.02518e-05
1.45734e-05
1.31506e-05
2.15374e-05
2.61896e-06
2.13784e-05
7.99721e-06
2.12152e-05
1.26795e-05
2.10553e-05
1.66438e-05
2.08998e-05
1.99591e-05
2.07486e-05
2.27139e-05
2.06011e-05
2.49962e-05
2.04564e-05
2.68825e-05
2.03134e-05
2.84293e-05
2.01712e-05
2.96689e-05
2.00284e-05
3.06066e-05
1.98836e-05
3.12217e-05
1.97355e-05
3.14692e-05
1.95827e-05
3.12842e-05
1.94235e-05
3.05849e-05
1.92544e-05
2.92734e-05
1.90733e-05
2.72394e-05
1.88793e-05
2.43753e-05
1.85989e-05
2.05323e-05
1.5437e-05
1.77353e-05
2.34494e-05
2.74403e-06
2.32807e-05
8.16596e-06
2.31068e-05
1.28533e-05
2.29374e-05
1.68133e-05
2.27741e-05
2.01224e-05
2.26175e-05
2.28705e-05
2.24677e-05
2.51461e-05
2.23249e-05
2.70253e-05
2.219e-05
2.85641e-05
2.20648e-05
2.97941e-05
2.19523e-05
3.07192e-05
2.18575e-05
3.13165e-05
2.17883e-05
3.15384e-05
2.17565e-05
3.1316e-05
2.17775e-05
3.05639e-05
2.18658e-05
2.91852e-05
2.20218e-05
2.70834e-05
2.22037e-05
2.41935e-05
2.22394e-05
2.04966e-05
1.60718e-05
2.16045e-05
2.55345e-05
2.86795e-06
2.53591e-05
8.34136e-06
2.51773e-05
1.30351e-05
2.50015e-05
1.69891e-05
2.48348e-05
2.02891e-05
2.46787e-05
2.30266e-05
2.45348e-05
2.529e-05
2.44054e-05
2.71546e-05
2.42947e-05
2.86749e-05
2.42087e-05
2.988e-05
2.41568e-05
3.07711e-05
2.41519e-05
3.13214e-05
2.42115e-05
3.14788e-05
2.43561e-05
3.11713e-05
2.46049e-05
3.03152e-05
2.4962e-05
2.88281e-05
2.53936e-05
2.66518e-05
2.57978e-05
2.37892e-05
2.59614e-05
2.0333e-05
1.65052e-05
2.5528e-05
2.78075e-05
2.98702e-06
2.763e-05
8.51888e-06
2.74448e-05
1.32203e-05
2.72677e-05
1.71662e-05
2.7104e-05
2.04529e-05
2.69568e-05
2.31738e-05
2.68299e-05
2.54169e-05
2.67289e-05
2.72556e-05
2.66619e-05
2.87418e-05
2.66408e-05
2.99012e-05
2.66813e-05
3.07306e-05
2.68032e-05
3.11994e-05
2.70289e-05
3.12531e-05
2.7378e-05
3.08222e-05
2.78576e-05
2.98356e-05
2.84453e-05
2.82404e-05
2.90691e-05
2.6028e-05
2.95959e-05
2.32624e-05
2.9833e-05
2.00959e-05
1.67692e-05
2.95691e-05
3.02848e-05
3.0975e-06
3.01111e-05
8.6926e-06
2.99291e-05
1.34023e-05
2.97581e-05
1.73372e-05
2.96062e-05
2.06047e-05
2.9479e-05
2.33009e-05
2.93834e-05
2.55126e-05
2.93286e-05
2.73104e-05
2.93279e-05
2.87426e-05
2.93982e-05
2.98308e-05
2.95605e-05
3.05683e-05
2.98377e-05
3.09223e-05
3.02497e-05
3.08411e-05
3.08057e-05
3.02662e-05
3.14916e-05
2.91497e-05
3.22566e-05
2.74754e-05
3.30046e-05
2.528e-05
3.36005e-05
2.26666e-05
3.3895e-05
1.98013e-05
1.68914e-05
3.37729e-05
3.2984e-05
3.1957e-06
3.28214e-05
8.85514e-06
3.26515e-05
1.35723e-05
3.24967e-05
1.74919e-05
3.23684e-05
2.07331e-05
3.22752e-05
2.33941e-05
3.22277e-05
2.55601e-05
3.22393e-05
2.72987e-05
3.23277e-05
2.86542e-05
3.25139e-05
2.96446e-05
3.28208e-05
3.02614e-05
3.32689e-05
3.04742e-05
3.38692e-05
3.02408e-05
3.46142e-05
2.95212e-05
3.54675e-05
2.82964e-05
3.6358e-05
2.65849e-05
3.71829e-05
2.4455e-05
3.78247e-05
2.20248e-05
3.81789e-05
1.9447e-05
1.68833e-05
3.8187e-05
3.59242e-05
3.27809e-06
3.57816e-05
8.99775e-06
3.56349e-05
1.3719e-05
3.55091e-05
1.76177e-05
3.54189e-05
2.08233e-05
3.53764e-05
2.34365e-05
3.53958e-05
2.55408e-05
3.54945e-05
2.72001e-05
3.56932e-05
2.84555e-05
3.60144e-05
2.93233e-05
3.64789e-05
2.97969e-05
3.70996e-05
2.98535e-05
3.78744e-05
2.9466e-05
3.87779e-05
2.86177e-05
3.97568e-05
2.73174e-05
4.07313e-05
2.56104e-05
4.16055e-05
2.35808e-05
4.22866e-05
2.13437e-05
4.27061e-05
1.90275e-05
1.67534e-05
4.2836e-05
3.91263e-05
3.34129e-06
3.90136e-05
9.11048e-06
3.89035e-05
1.3829e-05
3.88223e-05
1.7699e-05
3.87873e-05
2.08583e-05
3.8814e-05
2.34098e-05
3.89199e-05
2.54349e-05
3.91249e-05
2.6995e-05
3.94509e-05
2.81295e-05
3.99185e-05
2.88557e-05
4.05423e-05
2.91731e-05
4.13248e-05
2.90711e-05
4.22493e-05
2.85414e-05
4.32764e-05
2.75906e-05
4.43435e-05
2.62503e-05
4.53722e-05
2.45817e-05
4.62809e-05
2.26722e-05
4.70005e-05
2.06241e-05
4.74875e-05
1.85405e-05
1.65108e-05
4.77301e-05
4.2613e-05
3.38209e-06
4.2541e-05
9.18244e-06
4.24829e-05
1.38872e-05
4.24638e-05
1.77181e-05
4.2503e-05
2.08191e-05
4.26184e-05
2.32943e-05
4.28294e-05
2.52239e-05
4.31568e-05
2.66677e-05
4.36207e-05
2.76656e-05
4.4237e-05
2.82395e-05
4.50115e-05
2.83985e-05
4.59352e-05
2.81474e-05
4.69793e-05
2.74973e-05
4.80957e-05
2.64743e-05
4.92202e-05
2.51258e-05
5.02825e-05
2.35195e-05
5.1217e-05
2.17377e-05
5.19743e-05
1.98669e-05
5.25271e-05
1.79876e-05
1.61659e-05
5.2872e-05
4.6409e-05
3.39738e-06
4.63893e-05
9.20221e-06
4.63994e-05
1.3877e-05
4.64616e-05
1.76559e-05
4.65949e-05
2.06858e-05
4.68178e-05
2.30714e-05
4.71499e-05
2.48918e-05
4.76105e-05
2.62071e-05
4.82157e-05
2.70604e-05
4.89741e-05
2.74811e-05
4.98823e-05
2.74903e-05
5.09208e-05
2.7109e-05
5.2053e-05
2.6365e-05
5.32277e-05
2.52996e-05
5.43852e-05
2.39683e-05
5.54659e-05
2.24388e-05
5.64194e-05
2.07841e-05
5.7211e-05
1.90753e-05
5.78241e-05
1.73746e-05
1.57311e-05
5.82589e-05
5.05414e-05
3.38415e-06
5.05854e-05
9.1582e-06
5.06809e-05
1.37816e-05
5.08437e-05
1.7493e-05
5.10902e-05
2.04394e-05
5.14373e-05
2.27242e-05
5.19025e-05
2.44266e-05
5.25011e-05
2.56085e-05
5.32433e-05
2.63182e-05
5.41299e-05
2.65945e-05
5.51487e-05
2.64715e-05
5.62731e-05
2.59845e-05
5.74631e-05
2.5175e-05
5.86694e-05
2.40933e-05
5.98398e-05
2.27979e-05
6.09264e-05
2.13522e-05
6.18913e-05
1.98191e-05
6.27106e-05
1.8256e-05
6.33743e-05
1.67109e-05
1.52208e-05
6.38845e-05
5.50395e-05
3.3394e-06
5.51588e-05
9.03893e-06
5.53562e-05
1.35841e-05
5.56382e-05
1.7211e-05
5.60152e-05
2.00624e-05
5.64997e-05
2.22397e-05
5.71045e-05
2.38218e-05
5.78394e-05
2.48736e-05
5.87077e-05
2.54499e-05
5.97027e-05
2.55995e-05
6.08061e-05
2.53682e-05
6.19875e-05
2.48031e-05
6.32076e-05
2.39549e-05
6.44222e-05
2.28787e-05
6.55881e-05
2.1632e-05
6.66681e-05
2.02722e-05
6.76348e-05
1.88525e-05
6.84716e-05
1.74192e-05
6.91729e-05
1.60097e-05
1.46522e-05
6.97415e-05
5.99357e-05
3.25989e-06
6.01416e-05
8.83301e-06
6.04571e-05
1.32687e-05
6.0875e-05
1.67931e-05
6.13963e-05
1.95411e-05
6.20267e-05
2.16094e-05
6.2772e-05
2.30764e-05
6.36355e-05
2.40101e-05
6.46136e-05
2.44719e-05
6.56939e-05
2.45191e-05
6.68547e-05
2.42075e-05
6.80654e-05
2.35924e-05
6.92902e-05
2.273e-05
7.04922e-05
2.16767e-05
7.16371e-05
2.04871e-05
7.26972e-05
1.92121e-05
7.3653e-05
1.78967e-05
7.44936e-05
1.65785e-05
7.52161e-05
1.52872e-05
1.40447e-05
7.58237e-05
6.52658e-05
3.14149e-06
6.55704e-05
8.52838e-06
6.60194e-05
1.28198e-05
6.65878e-05
1.62246e-05
6.7264e-05
1.88649e-05
6.80437e-05
2.08297e-05
6.8925e-05
2.21951e-05
6.99041e-05
2.3031e-05
7.09719e-05
2.34041e-05
7.21126e-05
2.33784e-05
7.33036e-05
2.30164e-05
7.45172e-05
2.23788e-05
7.57233e-05
2.1524e-05
7.68925e-05
2.05075e-05
7.79993e-05
1.93803e-05
7.9024e-05
1.81875e-05
7.99533e-05
1.69674e-05
8.07806e-05
1.57512e-05
8.1505e-05
1.45629e-05
1.342e-05
8.21296e-05
7.107e-05
2.97785e-06
7.14882e-05
8.11015e-06
7.20871e-05
1.22209e-05
7.28193e-05
1.54925e-05
7.36573e-05
1.80269e-05
7.45856e-05
1.99014e-05
7.55937e-05
2.11869e-05
7.66717e-05
2.19531e-05
7.78067e-05
2.22691e-05
7.89819e-05
2.22032e-05
8.01767e-05
2.18216e-05
8.1368e-05
2.11874e-05
8.25325e-05
2.03595e-05
8.36487e-05
1.93913e-05
8.46989e-05
1.83301e-05
8.567e-05
1.72164e-05
8.65538e-05
1.60835e-05
8.73471e-05
1.49579e-05
8.80504e-05
1.38596e-05
1.28033e-05
8.86672e-05
7.73947e-05
2.7575e-06
7.79479e-05
7.55696e-06
7.87165e-05
1.14522e-05
7.96258e-05
1.45832e-05
8.06307e-05
1.7022e-05
8.17039e-05
1.88282e-05
8.2827e-05
2.00638e-05
8.39852e-05
2.07949e-05
8.51638e-05
2.10905e-05
8.63471e-05
2.10199e-05
8.75185e-05
2.06502e-05
8.86612e-05
2.00448e-05
8.97593e-05
1.92614e-05
9.07991e-05
1.83514e-05
9.17702e-05
1.7359e-05
9.26655e-05
1.63211e-05
9.34814e-05
1.52676e-05
9.42174e-05
1.42219e-05
9.48753e-05
1.32017e-05
1.22197e-05
9.54589e-05
8.42989e-05
2.455e-06
8.50191e-05
6.83683e-06
8.59808e-05
1.04905e-05
8.70795e-05
1.34846e-05
8.82536e-05
1.58479e-05
8.94656e-05
1.76162e-05
9.0691e-05
1.88384e-05
9.19118e-05
1.95741e-05
9.31136e-05
1.98888e-05
9.42835e-05
1.985e-05
9.54099e-05
1.95238e-05
9.64824e-05
1.89722e-05
9.74925e-05
1.82513e-05
9.84337e-05
1.74103e-05
9.93018e-05
1.64909e-05
0.000100095
1.55277e-05
0.000100814
1.45485e-05
0.000101461
1.35748e-05
0.00010204
1.26229e-05
1.17046e-05
0.000102555
9.18645e-05
2.01207e-06
9.27935e-05
5.90788e-06
9.39699e-05
9.31403e-06
9.52652e-05
1.21893e-05
9.66056e-05
1.45075e-05
9.79457e-05
1.62761e-05
9.92559e-05
1.75282e-05
0.000100517
1.83132e-05
0.000101715
1.86902e-05
0.000102843
1.87219e-05
0.000103896
1.84711e-05
0.000104871
1.79972e-05
0.000105768
1.73545e-05
0.000106588
1.65903e-05
0.000107333
1.57454e-05
0.000108008
1.48532e-05
0.000108616
1.39409e-05
0.000109161
1.30294e-05
0.000109649
1.21349e-05
1.12691e-05
0.000110084
0.000100136
0.000101302
0.000102699
0.000104198
0.000105718
0.000107208
0.000108631
0.000109962
0.000111187
0.0001123
0.000113298
0.000114185
0.000114968
0.000115654
0.000116252
0.000116773
0.000117226
0.000117618
0.000117959
0.000118256
6.59624e-06
6.55437e-06
3.63707e-06
2.95917e-06
2.3033e-06
1.33377e-06
1.65211e-06
6.51184e-07
1.29278e-06
3.59335e-07
1.06642e-06
2.26359e-07
9.07758e-07
1.58659e-07
7.88569e-07
1.19189e-07
6.95132e-07
9.34367e-08
6.19833e-07
7.52993e-08
5.58036e-07
6.17974e-08
5.06799e-07
5.12369e-08
4.64264e-07
4.25345e-08
4.29336e-07
3.49279e-08
4.01509e-07
2.78272e-08
3.80787e-07
2.07222e-08
3.67473e-07
1.33138e-08
3.62559e-07
4.91441e-09
3.64275e-07
-1.71666e-09
-1.34417e-08
1.40652e-05
1.02245e-05
1.04697e-05
6.55475e-06
7.79187e-06
4.01156e-06
5.96774e-06
2.47532e-06
4.74183e-06
1.58524e-06
3.89661e-06
1.07158e-06
3.28909e-06
7.66174e-07
2.83388e-06
5.74404e-07
2.48067e-06
4.46646e-07
2.19914e-06
3.56832e-07
1.97038e-06
2.90557e-07
1.78231e-06
2.39302e-07
1.62721e-06
1.97637e-07
1.50033e-06
1.6181e-07
1.39916e-06
1.28997e-07
1.32294e-06
9.69377e-08
1.2724e-06
6.3858e-08
1.24858e-06
2.8736e-08
1.25074e-06
-3.87686e-09
-4.02065e-08
1.94504e-05
1.23786e-05
1.64738e-05
9.53131e-06
1.35328e-05
6.95261e-06
1.10473e-05
4.9608e-06
9.09361e-06
3.5389e-06
7.59955e-06
2.56564e-06
6.45774e-06
1.90799e-06
5.57344e-06
1.45871e-06
4.87596e-06
1.14412e-06
4.31597e-06
9.16825e-07
3.85979e-06
7.46732e-07
3.48467e-06
6.14424e-07
3.17543e-06
5.06876e-07
2.92239e-06
4.14857e-07
2.72002e-06
3.31362e-07
2.5661e-06
2.50862e-07
2.46124e-06
1.68721e-07
2.40591e-06
8.40596e-08
2.401e-06
1.03212e-09
-7.22216e-08
2.41331e-05
1.37735e-05
2.18551e-05
1.18093e-05
1.91666e-05
9.64111e-06
1.65042e-05
7.62324e-06
1.41176e-05
5.92549e-06
1.20965e-05
4.58681e-06
1.04334e-05
3.57103e-06
9.07922e-06
2.8129e-06
7.9761e-06
2.24725e-06
7.07254e-06
1.82038e-06
6.32759e-06
1.49168e-06
5.71059e-06
1.23142e-06
5.19963e-06
1.01784e-06
4.77989e-06
8.34592e-07
4.44244e-06
6.68816e-07
4.1831e-06
5.10194e-07
4.00184e-06
3.49981e-07
3.89873e-06
1.87177e-07
3.8745e-06
2.52594e-08
-1.0253e-07
2.86296e-05
1.47129e-05
2.6937e-05
1.3502e-05
2.46792e-05
1.18988e-05
2.21533e-05
1.01492e-05
1.9625e-05
8.45375e-06
1.72729e-05
6.93887e-06
1.51854e-05
5.65854e-06
1.33844e-05
4.61395e-06
1.1854e-05
3.77761e-06
1.05628e-05
3.11163e-06
9.47628e-06
2.57816e-06
8.56386e-06
2.14385e-06
7.80083e-06
1.78087e-06
7.16919e-06
1.46624e-06
6.65727e-06
1.18073e-06
6.25924e-06
9.08227e-07
5.97423e-06
6.34987e-07
5.80219e-06
3.5922e-07
5.74259e-06
8.48617e-08
-1.21662e-07
3.31529e-05
1.53329e-05
3.19285e-05
1.47264e-05
3.01311e-05
1.36962e-05
2.79122e-05
1.23682e-05
2.54726e-05
1.08933e-05
2.30017e-05
9.40975e-06
2.06416e-05
8.01866e-06
1.8478e-05
6.7776e-06
1.65489e-05
5.70669e-06
1.48602e-05
4.80037e-06
1.33997e-05
4.03863e-06
1.21482e-05
3.39535e-06
1.10858e-05
2.84326e-06
1.01958e-05
2.35624e-06
9.46645e-06
1.91008e-06
8.8916e-06
1.48307e-06
8.47029e-06
1.0563e-06
8.20301e-06
6.26504e-07
8.08765e-06
2.00216e-07
-1.17005e-07
3.78146e-05
1.57053e-05
3.69649e-05
1.5576e-05
3.55972e-05
1.50639e-05
3.3758e-05
1.42074e-05
3.15631e-05
1.30882e-05
2.91622e-05
1.18106e-05
2.67033e-05
1.04775e-05
2.43075e-05
9.17341e-06
2.20589e-05
7.95535e-06
2.00062e-05
6.85306e-06
1.8171e-05
5.87383e-06
1.65571e-05
5.00923e-06
1.51592e-05
4.24119e-06
1.39689e-05
3.54652e-06
1.29792e-05
2.89979e-06
1.21867e-05
2.27558e-06
1.15922e-05
1.65074e-06
1.11984e-05
1.02037e-06
1.10023e-05
3.96304e-07
-7.20987e-08
4.26681e-05
1.58731e-05
4.21262e-05
1.6118e-05
4.11415e-05
1.60486e-05
3.96979e-05
1.5651e-05
3.78378e-05
1.49483e-05
3.56526e-05
1.39958e-05
3.32614e-05
1.28687e-05
3.07875e-05
1.16474e-05
2.83394e-05
1.04034e-05
2.60012e-05
9.19129e-06
2.38302e-05
8.04477e-06
2.18613e-05
6.9782e-06
2.01125e-05
5.98996e-06
1.85924e-05
5.06664e-06
1.73052e-05
4.18696e-06
1.62553e-05
3.32549e-06
1.54488e-05
2.45718e-06
1.4893e-05
1.57616e-06
1.45867e-05
7.02606e-07
3.40501e-08
4.77372e-05
1.58661e-05
4.74543e-05
1.64009e-05
4.68066e-05
1.66962e-05
4.57454e-05
1.67122e-05
4.42616e-05
1.64321e-05
4.23907e-05
1.58668e-05
4.02068e-05
1.50526e-05
3.78094e-05
1.40448e-05
3.53063e-05
1.29065e-05
3.27992e-05
1.16985e-05
3.03733e-05
1.04706e-05
2.80946e-05
9.25694e-06
2.60101e-05
8.07451e-06
2.41522e-05
6.92448e-06
2.25441e-05
5.79512e-06
2.12039e-05
4.66565e-06
2.01485e-05
3.51261e-06
1.93937e-05
2.33099e-06
1.89439e-05
1.15231e-06
2.27468e-07
5.30303e-05
1.57078e-05
5.29683e-05
1.64629e-05
5.26151e-05
1.70494e-05
5.19087e-05
1.74185e-05
5.08093e-05
1.75316e-05
4.93087e-05
1.73674e-05
4.74354e-05
1.6926e-05
4.52512e-05
1.62289e-05
4.28425e-05
1.53152e-05
4.03074e-05
1.42335e-05
3.7744e-05
1.3034e-05
3.5241e-05
1.176e-05
3.28731e-05
1.04424e-05
3.07003e-05
9.09724e-06
2.87703e-05
7.72517e-06
2.71217e-05
6.31419e-06
2.57881e-05
4.84626e-06
2.47992e-05
3.31981e-06
2.4171e-05
1.78059e-06
5.39113e-07
5.85467e-05
1.542e-05
5.86727e-05
1.63369e-05
5.85741e-05
1.7148e-05
5.81875e-05
1.78051e-05
5.74579e-05
1.82612e-05
5.63487e-05
1.84766e-05
5.48506e-05
1.8424e-05
5.29858e-05
1.80938e-05
5.08069e-05
1.74941e-05
4.83913e-05
1.66492e-05
4.58313e-05
1.5594e-05
4.32244e-05
1.43668e-05
4.06646e-05
1.30023e-05
3.82367e-05
1.15251e-05
3.60149e-05
9.94697e-06
3.40632e-05
8.26592e-06
3.24374e-05
6.47205e-06
3.11874e-05
4.56978e-06
3.03467e-05
2.62128e-06
1.00399e-06
6.42803e-05
1.50243e-05
6.45633e-05
1.60539e-05
6.46806e-05
1.70306e-05
6.45737e-05
1.7912e-05
6.41837e-05
1.86513e-05
6.34589e-05
1.92013e-05
6.23639e-05
1.9519e-05
6.08869e-05
1.95708e-05
5.90446e-05
1.93363e-05
5.6883e-05
1.88107e-05
5.44735e-05
1.80036e-05
5.19054e-05
1.69349e-05
4.92782e-05
1.56295e-05
4.66928e-05
1.41106e-05
4.42459e-05
1.23938e-05
4.20274e-05
1.04844e-05
4.01192e-05
8.38031e-06
3.85959e-05
6.09306e-06
3.75151e-05
3.70205e-06
1.65882e-06
7.02225e-05
1.45433e-05
7.06314e-05
1.5645e-05
7.09255e-05
1.67364e-05
7.10543e-05
1.77831e-05
7.0962e-05
1.87436e-05
7.05923e-05
1.9571e-05
6.98954e-05
2.0216e-05
6.88355e-05
2.06307e-05
6.7398e-05
2.07737e-05
6.55955e-05
2.06133e-05
6.34688e-05
2.01302e-05
6.10856e-05
1.9318e-05
5.85351e-05
1.81801e-05
5.59203e-05
1.67254e-05
5.3351e-05
1.4963e-05
5.09378e-05
1.28977e-05
4.87873e-05
1.05308e-05
4.70013e-05
7.87909e-06
4.56654e-05
5.03793e-06
2.53801e-06
7.63655e-05
1.40015e-05
7.68681e-05
1.51424e-05
7.72985e-05
1.6306e-05
7.76154e-05
1.74663e-05
7.777e-05
1.8589e-05
7.77087e-05
1.96324e-05
7.73768e-05
2.05478e-05
7.67254e-05
2.12822e-05
7.57178e-05
2.17813e-05
7.43374e-05
2.19937e-05
7.25931e-05
2.18746e-05
7.05225e-05
2.13886e-05
6.81915e-05
2.0511e-05
6.56908e-05
1.92261e-05
6.31291e-05
1.75248e-05
6.06264e-05
1.54003e-05
5.83078e-05
1.28493e-05
5.62985e-05
9.88841e-06
5.47122e-05
6.62427e-06
3.66773e-06
8.2706e-05
1.34251e-05
8.32686e-05
1.45797e-05
8.37929e-05
1.57817e-05
8.42468e-05
1.70123e-05
8.45905e-05
1.82453e-05
8.4777e-05
1.94459e-05
8.47544e-05
2.05704e-05
8.44696e-05
2.1567e-05
8.38741e-05
2.23768e-05
8.29309e-05
2.29369e-05
8.16216e-05
2.31839e-05
7.9953e-05
2.30573e-05
7.79608e-05
2.25032e-05
7.57109e-05
2.1476e-05
7.32965e-05
1.99392e-05
7.08327e-05
1.78641e-05
6.84502e-05
1.52319e-05
6.62882e-05
1.20504e-05
6.44817e-05
8.43073e-06
5.05878e-06
8.92491e-05
1.28432e-05
8.98355e-05
1.39933e-05
9.0409e-05
1.52082e-05
9.09459e-05
1.64754e-05
9.14155e-05
1.77758e-05
9.17795e-05
1.90819e-05
9.1993e-05
2.0357e-05
9.20059e-05
2.1554e-05
9.1767e-05
2.26157e-05
9.12289e-05
2.3475e-05
9.03548e-05
2.4058e-05
8.91258e-05
2.42863e-05
8.75477e-05
2.40813e-05
8.56556e-05
2.33681e-05
8.35159e-05
2.20789e-05
8.12242e-05
2.01558e-05
7.89006e-05
1.75555e-05
7.66833e-05
1.42677e-05
7.47151e-05
1.0399e-05
6.69982e-06
9.60173e-05
1.22847e-05
9.6591e-05
1.34197e-05
9.71681e-05
1.46311e-05
9.7732e-05
1.59115e-05
9.82605e-05
1.72473e-05
9.87247e-05
1.86177e-05
9.90886e-05
1.9993e-05
9.93101e-05
2.13325e-05
9.93422e-05
2.25836e-05
9.91364e-05
2.36808e-05
9.86476e-05
2.45467e-05
9.78407e-05
2.50932e-05
9.66973e-05
2.52247e-05
9.52229e-05
2.48425e-05
9.34516e-05
2.38501e-05
9.14484e-05
2.2159e-05
8.93072e-05
1.96967e-05
8.71467e-05
1.64282e-05
8.50989e-05
1.24467e-05
8.55356e-06
0.000103052
1.17879e-05
0.000103569
1.29026e-05
0.000104099
1.4101e-05
0.000104632
1.53788e-05
0.000105152
1.67273e-05
0.000105639
1.81308e-05
0.000106066
1.95655e-05
0.000106402
2.09971e-05
0.000106606
2.23789e-05
0.000106637
2.36499e-05
0.00010645
2.47341e-05
0.000106003
2.55402e-05
0.000105263
2.59642e-05
0.000104214
2.58922e-05
0.000102857
2.52065e-05
0.000101223
2.37932e-05
9.93669e-05
2.15529e-05
9.73709e-05
1.84242e-05
9.53362e-05
1.44814e-05
1.0557e-05
0.000110504
1.13679e-05
0.000110941
1.24662e-05
0.000111389
1.36526e-05
0.000111843
1.49248e-05
0.000112294
1.62765e-05
0.000112729
1.76957e-05
0.000113132
1.91628e-05
0.000113481
2.06482e-05
0.000113749
2.21105e-05
0.000113905
2.34941e-05
0.000113912
2.4727e-05
0.000113732
2.57205e-05
0.000113327
2.63692e-05
0.000112665
2.65543e-05
0.000111723
2.61481e-05
0.000110493
2.50229e-05
0.000108983
2.3063e-05
0.000107224
2.01839e-05
0.000105277
1.64277e-05
1.26396e-05
0.000118542
0.000118847
0.000119169
0.000119507
0.000119858
0.000120216
0.000120571
0.000120912
0.000121219
0.000121469
0.000121634
0.000121677
0.000121558
0.000121233
0.000120657
0.000119787
0.000118581
0.000117002
0.000115015
)
;

boundaryField
{
    zeroGradient_plane
    {
        type            calculated;
        value           nonuniform List<scalar> 
80
(
1.37909e-06
4.74185e-06
7.91709e-06
1.06908e-05
1.29867e-05
1.47863e-05
1.61057e-05
1.6982e-05
1.74648e-05
1.76095e-05
1.74728e-05
1.711e-05
1.65719e-05
1.59043e-05
1.51467e-05
1.43324e-05
1.34885e-05
1.26368e-05
1.1794e-05
1.09722e-05
1.10818e-05
1.2162e-05
1.33303e-05
1.45863e-05
1.59255e-05
1.7338e-05
1.88074e-05
2.0308e-05
2.18035e-05
2.32436e-05
2.45625e-05
2.56775e-05
2.64883e-05
2.68792e-05
2.67236e-05
2.58927e-05
2.42697e-05
2.17624e-05
1.84147e-05
1.50666e-05
3.77717e-07
1.2775e-06
2.43302e-06
3.90481e-06
5.76172e-06
8.083e-06
1.09574e-05
1.44806e-05
1.87505e-05
2.38593e-05
2.98818e-05
3.68603e-05
4.47862e-05
5.35824e-05
6.30907e-05
7.3074e-05
8.32452e-05
9.33328e-05
0.000103195
0.000112588
-2.38026e-06
-7.6906e-06
-1.23654e-05
-1.63353e-05
-1.96586e-05
-2.24209e-05
-2.47092e-05
-2.65993e-05
-2.81473e-05
-2.93848e-05
-3.03162e-05
-3.09194e-05
-3.11473e-05
-3.09318e-05
-3.01847e-05
-2.87988e-05
-2.66439e-05
-2.35245e-05
-1.90557e-05
-1.27248e-05
)
;
    }
    inlet
    {
        type            calculated;
        value           nonuniform List<scalar> 
20
(
-1.99006e-05
-2.16598e-05
-2.35745e-05
-2.56584e-05
-2.79266e-05
-3.03953e-05
-3.30822e-05
-3.60066e-05
-3.91895e-05
-4.26538e-05
-4.64243e-05
-5.05282e-05
-5.49948e-05
-5.98562e-05
-6.51474e-05
-7.09063e-05
-7.71743e-05
-8.39964e-05
-9.14216e-05
-9.95031e-05
)
;
    }
    plate
    {
        type            calculated;
        value           uniform 0;
    }
    frontAndBack
    {
        type            empty;
        value           nonuniform 0();
    }
}


// ************************************************************************* //
