/*--------------------------------*- C++ -*----------------------------------*\
| =========                 |                                                 |
| \\      /  F ield         | OpenFOAM: The Open Source CFD Toolbox           |
|  \\    /   O peration     | Version:  v1906                                 |
|   \\  /    A nd           | Web:      www.OpenFOAM.com                      |
|    \\/     M anipulation  |                                                 |
\*---------------------------------------------------------------------------*/
FoamFile
{
    version     2.0;
    format      ascii;
    class       volVectorField;
    location    "0.1";
    object      U;
}
// * * * * * * * * * * * * * * * * * * * * * * * * * * * * * * * * * * * * * //

dimensions      [0 1 -1 0 0 0 0];


internalField   nonuniform List<vector> 
800
(
(0.997891 0.0244445 0)
(0.990799 0.0848294 0)
(0.983071 0.147997 0)
(0.975542 0.212508 0)
(0.968151 0.278139 0)
(0.960947 0.345105 0)
(0.953886 0.413825 0)
(0.946915 0.484767 0)
(0.93996 0.558262 0)
(0.932926 0.634296 0)
(0.925688 0.71227 0)
(0.918069 0.790748 0)
(0.909816 0.867198 0)
(0.90055 0.93772 0)
(0.889783 0.996684 0)
(0.876491 1.03622 0)
(0.857502 1.04565 0)
(0.831075 1.00994 0)
(0.812735 0.902344 0)
(0.784101 0.670162 0)
(0.997982 0.0255432 0)
(0.991027 0.0863644 0)
(0.983353 0.149709 0)
(0.975893 0.21434 0)
(0.968595 0.280085 0)
(0.961517 0.347174 0)
(0.954626 0.416039 0)
(0.947885 0.487155 0)
(0.941251 0.560866 0)
(0.934676 0.637175 0)
(0.928106 0.715508 0)
(0.921482 0.794469 0)
(0.914738 0.871588 0)
(0.907803 0.943068 0)
(0.90069 1.00346 0)
(0.893382 1.04523 0)
(0.884998 1.05841 0)
(0.875896 1.03046 0)
(0.874588 0.941857 0)
(0.865204 0.755625 0)
(0.998158 0.026947 0)
(0.991493 0.0883811 0)
(0.983958 0.151965 0)
(0.976664 0.216743 0)
(0.969585 0.282623 0)
(0.962794 0.349852 0)
(0.956286 0.41887 0)
(0.950067 0.490157 0)
(0.944159 0.564059 0)
(0.938611 0.640577 0)
(0.933521 0.719132 0)
(0.929051 0.798312 0)
(0.925469 0.875612 0)
(0.923183 0.94717 0)
(0.922821 1.00746 0)
(0.925142 1.04888 0)
(0.93036 1.06157 0)
(0.938238 1.03399 0)
(0.947986 0.95248 0)
(0.942796 0.800568 0)
(0.998385 0.0282478 0)
(0.992158 0.0903345 0)
(0.984893 0.154161 0)
(0.977894 0.219065 0)
(0.971188 0.285044 0)
(0.964877 0.352356 0)
(0.959003 0.421443 0)
(0.953637 0.49277 0)
(0.948899 0.566657 0)
(0.94498 0.643059 0)
(0.94217 0.721318 0)
(0.940897 0.799902 0)
(0.941754 0.876118 0)
(0.945499 0.945849 0)
(0.95299 1.00331 0)
(0.964858 1.04088 0)
(0.980721 1.04943 0)
(0.998454 1.01978 0)
(1.01288 0.944801 0)
(1.01102 0.823012 0)
(0.998637 0.0294657 0)
(0.992982 0.0922629 0)
(0.986154 0.156343 0)
(0.979615 0.221351 0)
(0.973467 0.287377 0)
(0.96786 0.354693 0)
(0.9629 0.423724 0)
(0.958745 0.494897 0)
(0.955632 0.568466 0)
(0.953911 0.644284 0)
(0.954069 0.721545 0)
(0.956747 0.798502 0)
(0.962722 0.872209 0)
(0.972803 0.938308 0)
(0.987594 0.990983 0)
(1.007 1.02322 0)
(1.02951 1.0277 0)
(1.05164 0.998645 0)
(1.0675 0.934092 0)
(1.06864 0.838509 0)
(0.998894 0.0306186 0)
(0.993929 0.09419 0)
(0.98773 0.158539 0)
(0.981845 0.22362 0)
(0.976471 0.289622 0)
(0.971818 0.356826 0)
(0.968071 0.425622 0)
(0.965485 0.496366 0)
(0.964422 0.569204 0)
(0.965374 0.643835 0)
(0.968972 0.719247 0)
(0.975955 0.793458 0)
(0.987078 0.863315 0)
(1.00291 0.924433 0)
(1.02348 0.971396 0)
(1.04786 0.998381 0)
(1.07368 1.0003 0)
(1.09707 0.974385 0)
(1.11308 0.921655 0)
(1.11672 0.847737 0)
(0.999141 0.0316723 0)
(0.994967 0.0960476 0)
(0.989598 0.160661 0)
(0.984586 0.225762 0)
(0.980225 0.291636 0)
(0.976791 0.358564 0)
(0.974553 0.426876 0)
(0.973865 0.496826 0)
(0.975192 0.568413 0)
(0.979124 0.641143 0)
(0.986344 0.713789 0)
(0.997544 0.784184 0)
(1.01327 0.849125 0)
(1.03365 0.904489 0)
(1.05811 0.945651 0)
(1.08507 0.96825 0)
(1.11187 0.969239 0)
(1.13501 0.947931 0)
(1.15089 0.906595 0)
(1.15676 0.850275 0)
(0.99937 0.0325845 0)
(0.996062 0.0977373 0)
(0.991724 0.162577 0)
(0.987815 0.227618 0)
(0.984714 0.293222 0)
(0.982761 0.359657 0)
(0.982304 0.427169 0)
(0.983774 0.495884 0)
(0.987702 0.565625 0)
(0.994706 0.635705 0)
(1.00541 0.704722 0)
(1.02034 0.770438 0)
(1.03971 0.829807 0)
(1.06318 0.879237 0)
(1.08972 0.915104 0)
(1.11745 0.934475 0)
(1.14384 0.935862 0)
(1.16612 0.919748 0)
(1.18191 0.888628 0)
(1.18974 0.846507 0)
(0.999575 0.0333189 0)
(0.997186 0.0991538 0)
(0.994062 0.164137 0)
(0.991483 0.229 0)
(0.989882 0.294152 0)
(0.989648 0.359827 0)
(0.991187 0.426173 0)
(0.994973 0.493164 0)
(1.00155 0.560452 0)
(1.01149 0.627185 0)
(1.02526 0.691873 0)
(1.04315 0.752356 0)
(1.06501 0.805937 0)
(1.09016 0.84972 0)
(1.1173 0.881103 0)
(1.14457 0.898333 0)
(1.16984 0.900953 0)
(1.19108 0.889957 0)
(1.20678 0.867594 0)
(1.21621 0.836879 0)
(0.999757 0.033843 0)
(0.998314 0.100183 0)
(0.996557 0.165171 0)
(0.995513 0.229691 0)
(0.995623 0.294167 0)
(0.997296 0.358781 0)
(1.00096 0.423563 0)
(1.0071 0.488341 0)
(1.0162 0.552617 0)
(1.02872 0.615439 0)
(1.04494 0.675336 0)
(1.06487 0.730368 0)
(1.08809 0.778317 0)
(1.11369 0.817021 0)
(1.14035 0.844777 0)
(1.16641 0.860699 0)
(1.19023 0.864919 0)
(1.21038 0.858552 0)
(1.22593 0.843456 0)
(1.23652 0.821854 0)
(0.999916 0.0341255 0)
(0.999423 0.100701 0)
(0.999147 0.165487 0)
(0.9998 0.229451 0)
(1.00178 0.292992 0)
(1.00548 0.356218 0)
(1.01131 0.419044 0)
(1.01969 0.481166 0)
(1.03103 0.541982 0)
(1.04562 0.600519 0)
(1.06355 0.655432 0)
(1.0846 0.7051 0)
(1.10816 0.747829 0)
(1.13328 0.782136 0)
(1.15872 0.807025 0)
(1.18316 0.822181 0)
(1.20537 0.828023 0)
(1.22438 0.8256 0)
(1.23963 0.816379 0)
(1.25096 0.801992 0)
(1.00006 0.0341359 0)
(1.0005 0.100583 0)
(1.00177 0.164885 0)
(1.00422 0.228026 0)
(1.00816 0.290346 0)
(1.01391 0.351862 0)
(1.02182 0.41238 0)
(1.03222 0.471495 0)
(1.0454 0.52856 0)
(1.06147 0.582659 0)
(1.08035 0.632649 0)
(1.10167 0.677275 0)
(1.12476 0.715344 0)
(1.14872 0.745936 0)
(1.1725 0.768561 0)
(1.19508 0.783251 0)
(1.21559 0.790529 0)
(1.2334 0.791306 0)
(1.24816 0.786717 0)
(1.2598 0.777965 0)
(1.00018 0.0338441 0)
(1.00153 0.099701 0)
(1.00436 0.163163 0)
(1.00866 0.225168 0)
(1.01456 0.285968 0)
(1.02229 0.345479 0)
(1.03209 0.403412 0)
(1.04419 0.459302 0)
(1.05871 0.512508 0)
(1.07565 0.562233 0)
(1.09479 0.607577 0)
(1.11569 0.647643 0)
(1.13769 0.681672 0)
(1.16003 0.709169 0)
(1.18187 0.729987 0)
(1.20248 0.744342 0)
(1.22123 0.752769 0)
(1.23773 0.756028 0)
(1.25177 0.754996 0)
(1.26334 0.750566 0)
(1.00029 0.0332195 0)
(1.00251 0.0979313 0)
(1.00687 0.160126 0)
(1.01299 0.220648 0)
(1.02078 0.279636 0)
(1.03034 0.336904 0)
(1.04176 0.392082 0)
(1.05515 0.444679 0)
(1.07052 0.494106 0)
(1.08774 0.539715 0)
(1.10654 0.580851 0)
(1.12646 0.616934 0)
(1.14696 0.647546 0)
(1.16739 0.672495 0)
(1.18714 0.691844 0)
(1.20569 0.705903 0)
(1.22263 0.715171 0)
(1.23771 0.720275 0)
(1.25081 0.721895 0)
(1.26194 0.720708 0)
(1.00041 0.0322258 0)
(1.00345 0.0951463 0)
(1.0093 0.155586 0)
(1.01716 0.21426 0)
(1.02671 0.271178 0)
(1.03785 0.326043 0)
(1.05057 0.378423 0)
(1.06483 0.427822 0)
(1.08056 0.473724 0)
(1.09755 0.515633 0)
(1.11552 0.553112 0)
(1.13408 0.585837 0)
(1.15277 0.613638 0)
(1.17112 0.636524 0)
(1.18869 0.654682 0)
(1.20514 0.668454 0)
(1.22021 0.678294 0)
(1.23374 0.684718 0)
(1.24568 0.688265 0)
(1.25605 0.689454 0)
(1.00052 0.0308152 0)
(1.0044 0.0912073 0)
(1.01169 0.149357 0)
(1.0212 0.205825 0)
(1.03232 0.260467 0)
(1.04478 0.312872 0)
(1.05844 0.362547 0)
(1.07317 0.409 0)
(1.0888 0.451785 0)
(1.10514 0.490537 0)
(1.12192 0.524989 0)
(1.13883 0.555004 0)
(1.15553 0.580577 0)
(1.1717 0.601842 0)
(1.18705 0.619052 0)
(1.20137 0.632554 0)
(1.21449 0.642757 0)
(1.22635 0.650094 0)
(1.23693 0.655002 0)
(1.24624 0.657895 0)
(1.00067 0.0289204 0)
(1.00545 0.085967 0)
(1.01419 0.141282 0)
(1.02526 0.195226 0)
(1.03775 0.247468 0)
(1.05126 0.297463 0)
(1.06553 0.344652 0)
(1.08034 0.388541 0)
(1.09552 0.42874 0)
(1.11087 0.464975 0)
(1.12618 0.497101 0)
(1.14124 0.525096 0)
(1.15582 0.549058 0)
(1.16972 0.569183 0)
(1.1828 0.585752 0)
(1.19493 0.599099 0)
(1.20605 0.60959 0)
(1.21612 0.617598 0)
(1.22517 0.623487 0)
(1.23322 0.627599 0)
(1.00091 0.0263637 0)
(1.0068 0.0791426 0)
(1.01705 0.131142 0)
(1.02957 0.182379 0)
(1.04324 0.232258 0)
(1.05752 0.280063 0)
(1.07208 0.325144 0)
(1.08669 0.366978 0)
(1.10115 0.405193 0)
(1.11531 0.439565 0)
(1.12903 0.470016 0)
(1.14216 0.496593 0)
(1.1546 0.519447 0)
(1.16625 0.538809 0)
(1.17705 0.554968 0)
(1.18696 0.568246 0)
(1.19598 0.578976 0)
(1.20412 0.58749 0)
(1.21142 0.594105 0)
(1.21793 0.599116 0)
(1.00138 0.0223996 0)
(1.00879 0.0695186 0)
(1.02058 0.117641 0)
(1.03441 0.16606 0)
(1.049 0.213783 0)
(1.06375 0.25988 0)
(1.07832 0.303575 0)
(1.09244 0.344279 0)
(1.10593 0.381581 0)
(1.11869 0.41524 0)
(1.13065 0.445171 0)
(1.14177 0.471416 0)
(1.15202 0.494123 0)
(1.16143 0.513514 0)
(1.17 0.529863 0)
(1.17777 0.543472 0)
(1.18479 0.554654 0)
(1.19109 0.563716 0)
(1.19675 0.570951 0)
(1.2018 0.576629 0)
(1.00202 0.0158798 0)
(1.01108 0.0559247 0)
(1.02424 0.0996115 0)
(1.03913 0.144866 0)
(1.05449 0.190182 0)
(1.06974 0.234412 0)
(1.08445 0.276684 0)
(1.09836 0.316355 0)
(1.11126 0.35298 0)
(1.12304 0.386291 0)
(1.13368 0.416169 0)
(1.14317 0.442621 0)
(1.15157 0.465752 0)
(1.15895 0.485742 0)
(1.1654 0.502825 0)
(1.17102 0.517262 0)
(1.1759 0.529332 0)
(1.18014 0.539311 0)
(1.18382 0.547468 0)
(1.18701 0.554057 0)
(0.424176 0.236728 0)
(0.24137 0.0808808 0)
(0.140007 0.0268393 0)
(0.0938169 0.00933806 0)
(0.0712263 0.0037459 0)
(0.057796 0.00188376 0)
(0.0487008 0.00116976 0)
(0.0420262 0.000820972 0)
(0.0368602 0.000609394 0)
(0.0327288 0.000464568 0)
(0.0293546 0.000359196 0)
(0.0265619 0.000279338 0)
(0.0242381 0.000216513 0)
(0.0223134 0.000165106 0)
(0.0207497 0.000121176 0)
(0.0195399 8.17431e-05 0)
(0.0186769 4.57664e-05 0)
(0.018265 8.66192e-06 0)
(0.0180734 -1.16612e-05 0)
(0.0188101 -6.27056e-05 0)
(0.732169 0.446504 0)
(0.560298 0.225996 0)
(0.410723 0.108609 0)
(0.308289 0.0537482 0)
(0.241032 0.0286392 0)
(0.195396 0.0167683 0)
(0.163184 0.0107208 0)
(0.139482 0.00732084 0)
(0.121344 0.00522892 0)
(0.10703 0.00385005 0)
(0.0954762 0.00289248 0)
(0.0860078 0.00219808 0)
(0.0781917 0.00167394 0)
(0.0717541 0.00126191 0)
(0.0665349 0.000923727 0)
(0.0624733 0.000633351 0)
(0.0595336 0.000375 0)
(0.0579403 0.000135478 0)
(0.0571557 -4.18925e-05 0)
(0.0588276 -0.000255703 0)
(0.879179 0.580377 0)
(0.763657 0.378919 0)
(0.631297 0.233798 0)
(0.513979 0.142152 0)
(0.420492 0.0875578 0)
(0.348723 0.0557217 0)
(0.294098 0.0369556 0)
(0.252146 0.0255029 0)
(0.219345 0.018199 0)
(0.193205 0.0133319 0)
(0.172027 0.00995393 0)
(0.15466 0.00751883 0)
(0.140332 0.00569738 0)
(0.128537 0.00428206 0)
(0.118963 0.00313657 0)
(0.111468 0.00216994 0)
(0.105973 0.00132106 0)
(0.102761 0.000567514 0)
(0.101081 -4.87955e-05 0)
(0.103209 -0.00056157 0)
(0.975289 0.665216 0)
(0.900786 0.501499 0)
(0.799131 0.357944 0)
(0.691423 0.247357 0)
(0.591686 0.168725 0)
(0.505764 0.115488 0)
(0.434549 0.0802278 0)
(0.376506 0.0568693 0)
(0.329329 0.0411662 0)
(0.290812 0.0303662 0)
(0.259147 0.0227362 0)
(0.232955 0.0171868 0)
(0.211234 0.0130234 0)
(0.193284 0.0097927 0)
(0.178658 0.00719104 0)
(0.167121 0.00501358 0)
(0.158548 0.00311922 0)
(0.153239 0.00146794 0)
(0.150294 7.67705e-05 0)
(0.1524 -0.000899128 0)
(1.04761 0.721209 0)
(0.999679 0.591631 0)
(0.926319 0.463553 0)
(0.837828 0.350711 0)
(0.745316 0.25925 0)
(0.656902 0.189433 0)
(0.577148 0.138186 0)
(0.507727 0.101348 0)
(0.448494 0.0750285 0)
(0.39844 0.0561319 0)
(0.356302 0.0423893 0)
(0.320881 0.032207 0)
(0.29118 0.0244845 0)
(0.266436 0.0184621 0)
(0.246126 0.0136115 0)
(0.229956 0.0095668 0)
(0.217764 0.00607281 0)
(0.209847 0.00305279 0)
(0.205212 0.000492721 0)
(0.206821 -0.0011754 0)
(1.10498 0.758953 0)
(1.07469 0.65736 0)
(1.02385 0.548977 0)
(0.955993 0.443934 0)
(0.877556 0.349783 0)
(0.795377 0.270499 0)
(0.715049 0.20683 0)
(0.64027 0.157371 0)
(0.572934 0.119721 0)
(0.513615 0.0913195 0)
(0.462094 0.0698883 0)
(0.417783 0.0535849 0)
(0.379996 0.0409973 0)
(0.348111 0.0310733 0)
(0.321654 0.0230395 0)
(0.300339 0.0163377 0)
(0.284013 0.0105719 0)
(0.27297 0.00560473 0)
(0.266182 0.00139937 0)
(0.26682 -0.00128107 0)
(1.15161 0.783 0)
(1.13347 0.704083 0)
(1.09965 0.615347 0)
(1.05027 0.523092 0)
(0.988045 0.433637 0)
(0.917303 0.35196 0)
(0.842784 0.281031 0)
(0.76867 0.221829 0)
(0.698066 0.173841 0)
(0.632918 0.135685 0)
(0.574201 0.105649 0)
(0.522218 0.0820402 0)
(0.476886 0.0633675 0)
(0.437956 0.0483987 0)
(0.405173 0.0361572 0)
(0.378373 0.0258973 0)
(0.357483 0.0170739 0)
(0.342833 0.00947031 0)
(0.33342 0.00304507 0)
(0.332622 -0.00107244 0)
(1.18947 0.795932 0)
(1.18001 0.735326 0)
(1.15888 0.664459 0)
(1.12483 0.586752 0)
(1.07825 0.506553 0)
(1.02114 0.428246 0)
(0.956609 0.355459 0)
(0.888182 0.290593 0)
(0.819171 0.234736 0)
(0.752278 0.187881 0)
(0.68944 0.149273 0)
(0.631887 0.117768 0)
(0.580298 0.0921027 0)
(0.534994 0.0710693 0)
(0.496118 0.0536044 0)
(0.463766 0.0388316 0)
(0.438053 0.02608 0)
(0.419405 0.0150523 0)
(0.40692 0.00572939 0)
(0.404242 -0.00036176 0)
(1.21959 0.799465 0)
(1.21643 0.753658 0)
(1.20478 0.698343 0)
(1.18296 0.635057 0)
(1.1502 0.566346 0)
(1.10684 0.495375 0)
(1.05438 0.425394 0)
(0.99514 0.359221 0)
(0.931881 0.298894 0)
(0.867351 0.245538 0)
(0.80397 0.199442 0)
(0.743664 0.160257 0)
(0.687845 0.127234 0)
(0.637492 0.0994305 0)
(0.593275 0.0758755 0)
(0.555691 0.0556748 0)
(0.525156 0.0380974 0)
(0.502284 0.0227916 0)
(0.486361 0.0097994 0)
(0.481397 0.00108685 0)
(1.24256 0.794873 0)
(1.244 0.761017 0)
(1.23939 0.718895 0)
(1.22711 0.668914 0)
(1.20591 0.612272 0)
(1.17519 0.550886 0)
(1.13519 0.487146 0)
(1.08704 0.423568 0)
(1.03254 0.362438 0)
(0.97394 0.305527 0)
(0.913604 0.253956 0)
(0.853758 0.208191 0)
(0.796329 0.168155 0)
(0.742882 0.133382 0)
(0.694656 0.103187 0)
(0.652633 0.0768128 0)
(0.617637 0.0535757 0)
(0.590561 0.0331315 0)
(0.570972 0.0156367 0)
(0.56339 0.00356217 0)
(1.25886 0.78326 0)
(1.26356 0.759 0)
(1.2641 0.727849 0)
(1.25907 0.689593 0)
(1.24716 0.64454 0)
(1.22732 0.593593 0)
(1.19904 0.538202 0)
(1.16246 0.480214 0)
(1.11841 0.421631 0)
(1.06836 0.364351 0)
(1.01418 0.309935 0)
(0.957991 0.259473 0)
(0.901878 0.213538 0)
(0.847787 0.17224 0)
(0.797431 0.135335 0)
(0.752279 0.102363 0)
(0.713613 0.0728189 0)
(0.682685 0.0464611 0)
(0.659418 0.0236313 0)
(0.649004 0.00740359 0)
(1.26885 0.765694 0)
(1.27576 0.749055 0)
(1.27993 0.726854 0)
(1.28023 0.698577 0)
(1.27548 0.664009 0)
(1.26454 0.623338 0)
(1.24651 0.577213 0)
(1.2209 0.526727 0)
(1.18775 0.473317 0)
(1.14771 0.418599 0)
(1.10197 0.364167 0)
(1.05217 0.311407 0)
(1.00024 0.26136 0)
(0.948176 0.214666 0)
(0.897972 0.171578 0)
(0.851474 0.132047 0)
(0.81039 0.0958769 0)
(0.776351 0.0630362 0)
(0.749675 0.0341364 0)
(0.736395 0.0129823 0)
(1.27295 0.743281 0)
(1.28118 0.7326 0)
(1.28774 0.717552 0)
(1.29176 0.697515 0)
(1.29227 0.672007 0)
(1.28822 0.640777 0)
(1.2786 0.603888 0)
(1.26261 0.561773 0)
(1.23978 0.515235 0)
(1.21007 0.465388 0)
(1.17397 0.413538 0)
(1.13251 0.361028 0)
(1.08715 0.309089 0)
(1.03967 0.258713 0)
(0.992053 0.210586 0)
(0.946314 0.165098 0)
(0.904467 0.122438 0)
(0.868458 0.0828851 0)
(0.838983 0.0474048 0)
(0.823045 0.0206706 0)
(1.27158 0.717198 0)
(1.28041 0.711085 0)
(1.28834 0.701623 0)
(1.29473 0.688195 0)
(1.29882 0.670217 0)
(1.29976 0.647206 0)
(1.2966 0.618856 0)
(1.28846 0.585109 0)
(1.2746 0.546209 0)
(1.25455 0.502715 0)
(1.22823 0.455471 0)
(1.19603 0.405524 0)
(1.15885 0.354009 0)
(1.11801 0.302022 0)
(1.07521 0.250514 0)
(1.03241 0.200231 0)
(0.991704 0.151752 0)
(0.955207 0.105718 0)
(0.923889 0.0635104 0)
(0.9058 0.030792 0)
(1.2653 0.688739 0)
(1.27411 0.686049 0)
(1.28255 0.680843 0)
(1.29017 0.672562 0)
(1.29642 0.660617 0)
(1.30063 0.644438 0)
(1.30203 0.623522 0)
(1.29979 0.597497 0)
(1.2931 0.566189 0)
(1.2813 0.529671 0)
(1.26393 0.488295 0)
(1.24088 0.442674 0)
(1.21249 0.393638 0)
(1.17954 0.342149 0)
(1.14328 0.289201 0)
(1.10535 0.235736 0)
(1.0677 0.18263 0)
(1.03238 0.130872 0)
(1.00047 0.0822732 0)
(0.98106 0.0435549 0)
(1.25472 0.659205 0)
(1.26301 0.659026 0)
(1.27126 0.65699 0)
(1.27917 0.65261 0)
(1.28637 0.645347 0)
(1.29236 0.634624 0)
(1.29656 0.619861 0)
(1.29828 0.600521 0)
(1.29679 0.576162 0)
(1.29138 0.546498 0)
(1.28143 0.511451 0)
(1.26652 0.471193 0)
(1.24656 0.426149 0)
(1.22182 0.376977 0)
(1.19303 0.324511 0)
(1.16135 0.269694 0)
(1.12838 0.21355 0)
(1.09588 0.157319 0)
(1.0648 0.103204 0)
(1.04517 0.0589668 0)
(1.24063 0.630358 0)
(1.248 0.631981 0)
(1.2555 0.632235 0)
(1.26295 0.630711 0)
(1.2701 0.626933 0)
(1.27662 0.620366 0)
(1.28209 0.610429 0)
(1.28599 0.596522 0)
(1.28774 0.578064 0)
(1.28671 0.554544 0)
(1.28227 0.525573 0)
(1.27388 0.490948 0)
(1.26118 0.450694 0)
(1.24407 0.405095 0)
(1.2228 0.354692 0)
(1.19802 0.300263 0)
(1.17083 0.242813 0)
(1.14248 0.183703 0)
(1.11362 0.125423 0)
(1.09506 0.0766724 0)
(1.22396 0.602941 0)
(1.23002 0.605894 0)
(1.23628 0.607842 0)
(1.24264 0.608437 0)
(1.24896 0.607262 0)
(1.25501 0.60383 0)
(1.26053 0.597589 0)
(1.26516 0.587932 0)
(1.26846 0.574222 0)
(1.26996 0.555825 0)
(1.2691 0.532161 0)
(1.26538 0.502762 0)
(1.25832 0.467334 0)
(1.24762 0.425823 0)
(1.23317 0.378456 0)
(1.21518 0.325767 0)
(1.19418 0.268631 0)
(1.17083 0.208391 0)
(1.14529 0.147675 0)
(1.12904 0.0959369 0)
(1.20648 0.581181 0)
(1.21118 0.584986 0)
(1.21604 0.587983 0)
(1.221 0.58987 0)
(1.22597 0.590282 0)
(1.23085 0.588785 0)
(1.23548 0.584875 0)
(1.23965 0.577982 0)
(1.24309 0.567481 0)
(1.24548 0.552716 0)
(1.24644 0.533035 0)
(1.24556 0.507841 0)
(1.24241 0.476657 0)
(1.23659 0.439191 0)
(1.22779 0.395414 0)
(1.21585 0.345618 0)
(1.20079 0.290475 0)
(1.18255 0.231159 0)
(1.16085 0.170194 0)
(1.14776 0.117553 0)
(1.18993 0.559534 0)
(1.19289 0.564359 0)
(1.19604 0.568536 0)
(1.19937 0.571796 0)
(1.20285 0.573813 0)
(1.20644 0.574198 0)
(1.21005 0.57249 0)
(1.21358 0.568164 0)
(1.21688 0.560626 0)
(1.21974 0.54923 0)
(1.22189 0.533302 0)
(1.223 0.512177 0)
(1.22269 0.485257 0)
(1.22053 0.452077 0)
(1.21605 0.412395 0)
(1.20883 0.366269 0)
(1.19841 0.314158 0)
(1.18405 0.257081 0)
(1.16531 0.197571 0)
(1.15489 0.145783 0)
)
;

boundaryField
{
    zeroGradient_plane
    {
        type            zeroGradient;
    }
    inlet
    {
        type            fixedValue;
        value           uniform (1 0 0);
    }
    plate
    {
        type            noSlip;
    }
    frontAndBack
    {
        type            empty;
    }
}


// ************************************************************************* //
