/*--------------------------------*- C++ -*----------------------------------*\
| =========                 |                                                 |
| \\      /  F ield         | OpenFOAM: The Open Source CFD Toolbox           |
|  \\    /   O peration     | Version:  v1906                                 |
|   \\  /    A nd           | Web:      www.OpenFOAM.com                      |
|    \\/     M anipulation  |                                                 |
\*---------------------------------------------------------------------------*/
FoamFile
{
    version     2.0;
    format      ascii;
    class       volScalarField;
    location    "0.25";
    object      p;
}
// * * * * * * * * * * * * * * * * * * * * * * * * * * * * * * * * * * * * * //

dimensions      [0 2 -2 0 0 0 0];


internalField   nonuniform List<scalar> 
800
(
-1.68029e-08
0.00935886
0.022244
0.0351262
0.0489173
0.0635424
0.0792988
0.0965431
0.115784
0.137733
0.163391
0.194168
0.232038
0.279931
0.342458
0.424036
0.526864
0.69639
1.0708
1.22509
-0.00633592
0.00136119
0.0133306
0.025447
0.0384695
0.0522044
0.0668765
0.0827485
0.100196
0.119723
0.141988
0.167827
0.198217
0.234206
0.27696
0.325409
0.369258
0.404469
0.454608
0.276418
-0.0181035
-0.0129628
-0.00253538
0.00828225
0.0199474
0.0321263
0.044902
0.058373
0.0726772
0.0879521
0.104273
0.121533
0.13919
0.155811
0.168493
0.170919
0.149083
0.0864391
-0.0294272
-0.278606
-0.0316854
-0.0285523
-0.019609
-0.0101282
7.77786e-05
0.0105636
0.0212553
0.0320698
0.0428834
0.0534449
0.0632495
0.0713411
0.0759991
0.0743031
0.0616915
0.0312655
-0.0268177
-0.122215
-0.263712
-0.472905
-0.0470181
-0.0453026
-0.0377566
-0.0296374
-0.0209859
-0.0123365
-0.00392396
0.00398026
0.0109909
0.0164953
0.0195061
0.0184718
0.011056
-0.00605405
-0.0371713
-0.0874372
-0.162088
-0.264456
-0.395902
-0.557325
-0.0646272
-0.0639225
-0.0577542
-0.0510689
-0.0441157
-0.0375004
-0.0316131
-0.026907
-0.0240015
-0.0237971
-0.0275985
-0.0372295
-0.0550968
-0.0841226
-0.12746
-0.187977
-0.267416
-0.365271
-0.478592
-0.601965
-0.0847632
-0.0847353
-0.0799273
-0.0747474
-0.0696282
-0.0652267
-0.0620681
-0.0607569
-0.0620854
-0.067122
-0.0772788
-0.0943257
-0.120307
-0.15731
-0.20707
-0.270463
-0.346957
-0.434209
-0.528196
-0.623574
-0.10755
-0.107904
-0.104418
-0.100796
-0.0976144
-0.0955558
-0.0952426
-0.0973789
-0.10284
-0.11272
-0.128333
-0.15114
-0.182579
-0.223789
-0.275273
-0.336571
-0.406062
-0.480999
-0.557864
-0.632853
-0.133094
-0.133591
-0.131367
-0.129337
-0.128154
-0.128502
-0.131045
-0.13652
-0.145784
-0.159824
-0.179697
-0.206418
-0.240769
-0.283073
-0.332989
-0.389387
-0.450383
-0.513544
-0.576252
-0.636069
-0.161481
-0.161942
-0.160907
-0.160474
-0.161302
-0.164037
-0.169329
-0.177868
-0.190404
-0.207711
-0.230513
-0.259351
-0.294442
-0.335538
-0.381847
-0.432052
-0.48444
-0.537125
-0.588317
-0.63653
-0.192756
-0.193062
-0.193122
-0.19426
-0.19705
-0.202062
-0.209869
-0.22105
-0.236173
-0.255752
-0.280161
-0.309535
-0.343685
-0.382043
-0.42367
-0.46734
-0.51168
-0.555341
-0.597163
-0.636263
-0.226909
-0.226989
-0.228035
-0.230678
-0.235317
-0.242405
-0.252387
-0.265674
-0.282621
-0.303473
-0.328301
-0.356945
-0.388978
-0.423714
-0.460258
-0.4976
-0.534722
-0.570714
-0.604852
-0.636624
-0.263861
-0.263681
-0.265593
-0.269636
-0.275956
-0.284847
-0.296584
-0.311386
-0.32939
-0.350606
-0.37488
-0.401871
-0.431058
-0.461774
-0.493261
-0.524751
-0.555537
-0.585032
-0.6128
-0.63856
-0.303447
-0.302998
-0.305657
-0.310973
-0.318768
-0.329145
-0.342188
-0.357921
-0.376285
-0.397111
-0.420103
-0.444844
-0.470817
-0.497446
-0.524144
-0.550367
-0.575649
-0.599629
-0.622063
-0.642809
-0.345393
-0.344689
-0.347997
-0.354461
-0.363528
-0.375077
-0.389003
-0.405151
-0.423306
-0.443181
-0.464414
-0.486585
-0.509237
-0.531917
-0.554202
-0.575732
-0.596223
-0.615474
-0.633369
-0.649853
-0.389263
-0.38833
-0.39225
-0.399798
-0.409999
-0.422486
-0.436973
-0.453152
-0.470698
-0.489265
-0.508486
-0.527989
-0.547414
-0.566436
-0.584774
-0.60221
-0.618588
-0.633813
-0.647844
-0.660682
-0.434393
-0.433251
-0.43782
-0.446495
-0.457822
-0.471175
-0.486101
-0.502165
-0.51896
-0.536108
-0.553264
-0.570119
-0.586415
-0.601949
-0.616577
-0.630209
-0.642803
-0.654356
-0.664897
-0.674475
-0.479964
-0.478833
-0.484295
-0.494279
-0.506818
-0.52104
-0.536378
-0.552335
-0.568486
-0.584474
-0.600003
-0.614835
-0.628787
-0.641731
-0.653594
-0.664345
-0.673996
-0.68259
-0.690192
-0.69687
-0.525004
-0.52534
-0.533042
-0.545309
-0.559692
-0.575101
-0.590868
-0.606447
-0.621412
-0.635463
-0.648406
-0.660141
-0.670642
-0.67994
-0.688108
-0.695243
-0.701453
-0.706846
-0.711527
-0.715614
-0.563364
-0.567364
-0.579413
-0.595985
-0.614464
-0.633691
-0.652948
-0.671613
-0.689164
-0.70521
-0.719488
-0.731852
-0.742261
-0.750763
-0.757474
-0.762552
-0.766186
-0.76858
-0.769937
-0.770382
-1.25673
-2.31562
-2.27482
-2.04865
-1.85445
-1.70198
-1.58325
-1.48943
-1.41311
-1.34938
-1.29503
-1.24793
-1.20659
-1.16997
-1.13736
-1.10834
-1.08293
-1.06123
-1.0454
-1.03368
-0.871087
-1.54446
-1.71937
-1.71831
-1.66224
-1.58672
-1.51045
-1.44088
-1.37923
-1.32491
-1.27692
-1.2343
-1.19625
-1.16214
-1.13151
-1.10414
-1.08013
-1.05962
-1.04475
-1.03347
-0.773646
-1.17272
-1.38291
-1.47113
-1.49023
-1.46991
-1.43104
-1.38586
-1.34017
-1.29653
-1.25589
-1.21849
-1.18427
-1.15304
-1.12469
-1.09916
-1.07671
-1.0575
-1.04368
-1.03297
-0.753475
-1.01392
-1.19461
-1.29952
-1.34963
-1.36219
-1.35137
-1.32758
-1.29744
-1.26492
-1.23226
-1.20065
-1.17071
-1.14273
-1.1169
-1.0934
-1.0726
-1.05476
-1.04207
-1.03212
-0.740384
-0.918354
-1.06319
-1.16549
-1.22942
-1.26229
-1.27215
-1.26637
-1.25074
-1.22942
-1.20523
-1.18
-1.15489
-1.13061
-1.10767
-1.08646
-1.06753
-1.05122
-1.03977
-1.03081
-0.729248
-0.855351
-0.969214
-1.0612
-1.1285
-1.17233
-1.1962
-1.2045
-1.20146
-1.1907
-1.17501
-1.15649
-1.13661
-1.11643
-1.09673
-1.07811
-1.06127
-1.04666
-1.03662
-1.02887
-0.717539
-0.81146
-0.90152
-0.980891
-1.04536
-1.09342
-1.12567
-1.14408
-1.15125
-1.14981
-1.14217
-1.13033
-1.1159
-1.10011
-1.08392
-1.06815
-1.0536
-1.04088
-1.0324
-1.02603
-0.705236
-0.778007
-0.850284
-0.91773
-0.976687
-1.02484
-1.06129
-1.08637
-1.10128
-1.10764
-1.10724
-1.10178
-1.09277
-1.08151
-1.06905
-1.05633
-1.04426
-1.03357
-1.02682
-1.02193
-0.693294
-0.751136
-0.80991
-0.866946
-0.91952
-0.965392
-1.0031
-1.03204
-1.05239
-1.0649
-1.0707
-1.07106
-1.06726
-1.0605
-1.05186
-1.04233
-1.03288
-1.02435
-1.01946
-1.01606
-0.682502
-0.72922
-0.777458
-0.825588
-0.87171
-0.913991
-0.950918
-0.981475
-1.00521
-1.02222
-1.03302
-1.03842
-1.03938
-1.03693
-1.03206
-1.02576
-1.01901
-1.01273
-1.00977
-1.00774
-0.673522
-0.711576
-0.75134
-0.791825
-0.831761
-0.869767
-0.904529
-0.934949
-0.960276
-0.98016
-0.994648
-1.00412
-1.00919
-1.01065
-1.00934
-1.00618
-1.00209
-0.998069
-0.997044
-0.996083
-0.666911
-0.697975
-0.73073
-0.764582
-0.798704
-0.832118
-0.863783
-0.892708
-0.918064
-0.939276
-0.956069
-0.968477
-0.976799
-0.981548
-0.983386
-0.983087
-0.98149
-0.979595
-0.98036
-0.979984
-0.663125
-0.688401
-0.715226
-0.743253
-0.771959
-0.800676
-0.828635
-0.855029
-0.879092
-0.900186
-0.917868
-0.931935
-0.942426
-0.949604
-0.953923
-0.955989
-0.956505
-0.956437
-0.958655
-0.958173
-0.662582
-0.682962
-0.704679
-0.727534
-0.751202
-0.775243
-0.799116
-0.822208
-0.843887
-0.863557
-0.880731
-0.895082
-0.906473
-0.914972
-0.920836
-0.924493
-0.926485
-0.927701
-0.930783
-0.929286
-0.665545
-0.68172
-0.698983
-0.717216
-0.736216
-0.755694
-0.77528
-0.794531
-0.812959
-0.830072
-0.845421
-0.858651
-0.869543
-0.878036
-0.884238
-0.888414
-0.89094
-0.892604
-0.895663
-0.892035
-0.672831
-0.685298
-0.698566
-0.712564
-0.727159
-0.742161
-0.757319
-0.772319
-0.786803
-0.800392
-0.812717
-0.82346
-0.832393
-0.839403
-0.844511
-0.847863
-0.849692
-0.850676
-0.852545
-0.845527
-0.683511
-0.692756
-0.702535
-0.712774
-0.723362
-0.734151
-0.744948
-0.755522
-0.765611
-0.774937
-0.783229
-0.790249
-0.795824
-0.79986
-0.802362
-0.803413
-0.803147
-0.802135
-0.80146
-0.789756
-0.702928
-0.708893
-0.715014
-0.721245
-0.727501
-0.733673
-0.739626
-0.7452
-0.750212
-0.754469
-0.75778
-0.759982
-0.760959
-0.760656
-0.759086
-0.756301
-0.752376
-0.747797
-0.742939
-0.725091
-0.719386
-0.723127
-0.726831
-0.730361
-0.733586
-0.736354
-0.738488
-0.7398
-0.740098
-0.739204
-0.736973
-0.733312
-0.728197
-0.721688
-0.713913
-0.705025
-0.695185
-0.684883
-0.673715
-0.648242
-0.76991
-0.768565
-0.766455
-0.763556
-0.759739
-0.754874
-0.748845
-0.741552
-0.732915
-0.722891
-0.711491
-0.698797
-0.684982
-0.670306
-0.655101
-0.639707
-0.62443
-0.609459
-0.59249
-0.560767
)
;

boundaryField
{
    zeroGradient_plane
    {
        type            zeroGradient;
    }
    inlet
    {
        type            zeroGradient;
    }
    plate
    {
        type            zeroGradient;
    }
    frontAndBack
    {
        type            empty;
    }
}


// ************************************************************************* //
