/*--------------------------------*- C++ -*----------------------------------*\
| =========                 |                                                 |
| \\      /  F ield         | OpenFOAM: The Open Source CFD Toolbox           |
|  \\    /   O peration     | Version:  v1906                                 |
|   \\  /    A nd           | Web:      www.OpenFOAM.com                      |
|    \\/     M anipulation  |                                                 |
\*---------------------------------------------------------------------------*/
FoamFile
{
    version     2.0;
    format      ascii;
    class       surfaceScalarField;
    location    "0.25";
    object      phi;
}
// * * * * * * * * * * * * * * * * * * * * * * * * * * * * * * * * * * * * * //

dimensions      [0 3 -1 0 0 0 0];
oriented        oriented;


internalField   nonuniform List<scalar> 
1540
(
1.9782e-05
2.4874e-06
1.96315e-05
7.69583e-06
1.94775e-05
1.21585e-05
1.93258e-05
1.5878e-05
1.91777e-05
1.89606e-05
1.90329e-05
2.15238e-05
1.88905e-05
2.36706e-05
1.87495e-05
2.54805e-05
1.8608e-05
2.70058e-05
1.84642e-05
2.827e-05
1.83148e-05
2.92684e-05
1.81559e-05
2.99705e-05
1.79811e-05
3.03229e-05
1.77808e-05
3.02537e-05
1.75394e-05
2.96751e-05
1.72338e-05
2.8483e-05
1.68194e-05
2.65649e-05
1.61632e-05
2.38111e-05
1.49687e-05
1.99981e-05
1.44291e-05
1.31217e-05
2.15349e-05
2.61228e-06
2.13727e-05
7.85801e-06
2.12062e-05
1.2325e-05
2.1043e-05
1.60412e-05
2.08842e-05
1.91194e-05
2.07299e-05
2.16782e-05
2.05793e-05
2.38211e-05
2.04318e-05
2.5628e-05
2.02865e-05
2.71511e-05
2.01422e-05
2.84143e-05
1.99978e-05
2.94128e-05
1.98519e-05
3.01164e-05
1.97032e-05
3.04715e-05
1.95504e-05
3.04065e-05
1.93918e-05
2.98337e-05
1.9224e-05
2.86508e-05
1.90453e-05
2.67436e-05
1.88554e-05
2.4001e-05
1.85828e-05
2.02707e-05
1.52759e-05
1.7736e-05
2.34469e-05
2.73984e-06
2.32748e-05
8.0301e-06
2.30975e-05
1.25023e-05
2.29246e-05
1.62141e-05
2.27579e-05
1.9286e-05
2.2598e-05
2.1838e-05
2.24452e-05
2.3974e-05
2.22997e-05
2.57735e-05
2.21625e-05
2.72883e-05
2.20355e-05
2.85412e-05
2.19219e-05
2.95265e-05
2.18266e-05
3.02116e-05
2.17578e-05
3.05403e-05
2.17275e-05
3.04369e-05
2.17511e-05
2.98102e-05
2.18435e-05
2.85584e-05
2.20061e-05
2.6581e-05
2.21983e-05
2.38088e-05
2.225e-05
2.0219e-05
1.5886e-05
2.16398e-05
2.55321e-05
2.86622e-06
2.53532e-05
8.20892e-06
2.51679e-05
1.26877e-05
2.49886e-05
1.63934e-05
2.48184e-05
1.94562e-05
2.46591e-05
2.19973e-05
2.45123e-05
2.41208e-05
2.43805e-05
2.59053e-05
2.42678e-05
2.74009e-05
2.41807e-05
2.86284e-05
2.41285e-05
2.95788e-05
2.41243e-05
3.02157e-05
2.41859e-05
3.04787e-05
2.43342e-05
3.02886e-05
2.45884e-05
2.95559e-05
2.49537e-05
2.81931e-05
2.53969e-05
2.61378e-05
2.58175e-05
2.33882e-05
2.60034e-05
2.00331e-05
1.62905e-05
2.55989e-05
2.78052e-05
2.98764e-06
2.76243e-05
8.38982e-06
2.74356e-05
1.28764e-05
2.7255e-05
1.6574e-05
2.70881e-05
1.96231e-05
2.69379e-05
2.21475e-05
2.68085e-05
2.42503e-05
2.67055e-05
2.60083e-05
2.66374e-05
2.7469e-05
2.66161e-05
2.86497e-05
2.66576e-05
2.95373e-05
2.6782e-05
3.00913e-05
2.7012e-05
3.02488e-05
2.73675e-05
2.99331e-05
2.78561e-05
2.90673e-05
2.84561e-05
2.75931e-05
2.90966e-05
2.54973e-05
2.96451e-05
2.28398e-05
2.99092e-05
1.9769e-05
1.65228e-05
2.96769e-05
3.02826e-05
3.10027e-06
3.01057e-05
8.56677e-06
2.99204e-05
1.30617e-05
2.97463e-05
1.67481e-05
2.95915e-05
1.97779e-05
2.94619e-05
2.22771e-05
2.93644e-05
2.43478e-05
2.93086e-05
2.60641e-05
2.93077e-05
2.74699e-05
2.93793e-05
2.85781e-05
2.95444e-05
2.93722e-05
2.98262e-05
2.98095e-05
3.02451e-05
2.98299e-05
3.08107e-05
2.93676e-05
3.15094e-05
2.83686e-05
3.2291e-05
2.68114e-05
3.30601e-05
2.47282e-05
3.36818e-05
2.22181e-05
3.40066e-05
1.94442e-05
1.66115e-05
3.39179e-05
3.29821e-05
3.20037e-06
3.28166e-05
8.73221e-06
3.26438e-05
1.32346e-05
3.24864e-05
1.69054e-05
3.23559e-05
1.99084e-05
3.22611e-05
2.23718e-05
3.22127e-05
2.43962e-05
3.22245e-05
2.60523e-05
3.23143e-05
2.738e-05
3.25036e-05
2.83889e-05
3.28155e-05
2.90603e-05
3.32707e-05
2.93543e-05
3.38808e-05
2.92198e-05
3.46386e-05
2.86098e-05
3.55082e-05
2.74989e-05
3.64191e-05
2.59006e-05
3.72687e-05
2.38786e-05
3.79393e-05
2.15475e-05
3.8326e-05
1.90575e-05
1.65689e-05
3.83686e-05
3.59226e-05
3.28432e-06
3.57776e-05
8.87722e-06
3.56287e-05
1.33835e-05
3.55011e-05
1.7033e-05
3.54097e-05
1.99998e-05
3.53668e-05
2.24147e-05
3.53867e-05
2.43763e-05
3.54872e-05
2.59518e-05
3.56893e-05
2.7178e-05
3.60157e-05
2.80624e-05
3.64876e-05
2.85884e-05
3.71182e-05
2.87237e-05
3.79056e-05
2.84323e-05
3.88251e-05
2.76904e-05
3.98235e-05
2.65005e-05
4.08213e-05
2.49027e-05
4.17228e-05
2.29771e-05
4.24347e-05
2.08356e-05
4.28876e-05
1.86045e-05
1.64041e-05
4.30524e-05
3.91252e-05
3.34866e-06
3.90108e-05
8.99162e-06
3.88994e-05
1.34949e-05
3.88175e-05
1.7115e-05
3.87826e-05
2.00347e-05
3.88104e-05
2.23869e-05
3.89186e-05
2.42681e-05
3.91274e-05
2.5743e-05
3.9459e-05
2.68464e-05
3.99343e-05
2.75871e-05
4.05681e-05
2.79546e-05
4.13632e-05
2.79286e-05
4.23032e-05
2.74923e-05
4.33489e-05
2.66447e-05
4.4438e-05
2.54114e-05
4.54922e-05
2.38485e-05
4.64298e-05
2.20396e-05
4.7181e-05
2.00843e-05
4.77017e-05
1.80839e-05
1.6127e-05
4.79787e-05
4.26124e-05
3.39008e-06
4.25397e-05
9.06431e-06
4.24814e-05
1.35532e-05
4.24631e-05
1.71333e-05
4.2504e-05
1.99937e-05
4.26224e-05
2.22685e-05
4.28378e-05
2.40527e-05
4.31713e-05
2.54095e-05
4.36433e-05
2.63743e-05
4.42698e-05
2.69606e-05
4.50571e-05
2.71674e-05
4.59959e-05
2.69898e-05
4.70579e-05
2.64302e-05
4.81951e-05
2.55076e-05
4.93435e-05
2.4263e-05
5.04326e-05
2.27595e-05
5.13966e-05
2.10756e-05
5.21854e-05
1.92955e-05
5.27712e-05
1.74981e-05
1.57488e-05
5.31494e-05
4.6409e-05
3.40541e-06
4.63897e-05
9.08362e-06
4.64012e-05
1.35416e-05
4.64659e-05
1.70687e-05
4.66028e-05
1.98568e-05
4.68308e-05
2.20405e-05
4.71697e-05
2.37139e-05
4.76389e-05
2.49403e-05
4.82547e-05
2.57585e-05
4.9026e-05
2.61893e-05
4.99493e-05
2.62441e-05
5.10052e-05
2.59339e-05
5.21574e-05
2.52781e-05
5.33545e-05
2.43104e-05
5.45369e-05
2.30806e-05
5.56449e-05
2.16515e-05
5.66277e-05
2.00928e-05
5.745e-05
1.84732e-05
5.80945e-05
1.68536e-05
1.52824e-05
5.85608e-05
5.0542e-05
3.39153e-06
5.05879e-05
9.03774e-06
5.06865e-05
1.3443e-05
5.08537e-05
1.69014e-05
5.11059e-05
1.96046e-05
5.14604e-05
2.1686e-05
5.19347e-05
2.32396e-05
5.25444e-05
2.43306e-05
5.32997e-05
2.50032e-05
5.42015e-05
2.52875e-05
5.52376e-05
2.5208e-05
5.63814e-05
2.47901e-05
5.75929e-05
2.40666e-05
5.88226e-05
2.30807e-05
6.00183e-05
2.18849e-05
6.11319e-05
2.05379e-05
6.21252e-05
1.90995e-05
6.29737e-05
1.76247e-05
6.36669e-05
1.61605e-05
1.4743e-05
6.42063e-05
5.50409e-05
3.34536e-06
5.51637e-05
8.91502e-06
5.53661e-05
1.32406e-05
5.56545e-05
1.6613e-05
5.60392e-05
1.92199e-05
5.65331e-05
2.11921e-05
5.71492e-05
2.26235e-05
5.78974e-05
2.35824e-05
5.87809e-05
2.41196e-05
5.97931e-05
2.42753e-05
6.09155e-05
2.40856e-05
6.21177e-05
2.35879e-05
6.33601e-05
2.28242e-05
6.45986e-05
2.18422e-05
6.57896e-05
2.06938e-05
6.68959e-05
1.94317e-05
6.78895e-05
1.81059e-05
6.87536e-05
1.67606e-05
6.9482e-05
1.54321e-05
1.41478e-05
7.00772e-05
5.9938e-05
3.26357e-06
6.01491e-05
8.70398e-06
6.04714e-05
1.29183e-05
6.08975e-05
1.61869e-05
6.14284e-05
1.8689e-05
6.20699e-05
2.05507e-05
6.28281e-05
2.18653e-05
6.37063e-05
2.27042e-05
6.4701e-05
2.31249e-05
6.57998e-05
2.31765e-05
6.69805e-05
2.29049e-05
6.82126e-05
2.23558e-05
6.94601e-05
2.15767e-05
7.06857e-05
2.06166e-05
7.18551e-05
1.95244e-05
7.29402e-05
1.83466e-05
7.39212e-05
1.71249e-05
7.47869e-05
1.58948e-05
7.55341e-05
1.46849e-05
1.35164e-05
7.61655e-05
6.5269e-05
3.14199e-06
6.55804e-05
8.39256e-06
6.60379e-05
1.24608e-05
6.6616e-05
1.56088e-05
6.73028e-05
1.80021e-05
6.80944e-05
1.97591e-05
6.89892e-05
2.09705e-05
6.99834e-05
2.171e-05
7.10681e-05
2.20402e-05
7.22274e-05
2.20173e-05
7.34383e-05
2.16939e-05
7.4673e-05
2.11211e-05
7.59011e-05
2.03486e-05
7.7093e-05
1.94247e-05
7.8223e-05
1.83945e-05
7.9271e-05
1.72986e-05
8.02235e-05
1.61723e-05
8.10736e-05
1.50447e-05
8.182e-05
1.39385e-05
1.28705e-05
8.24659e-05
7.1074e-05
2.97429e-06
7.15005e-05
7.96614e-06
7.21091e-05
1.18522e-05
7.28515e-05
1.48664e-05
7.37001e-05
1.71535e-05
7.46398e-05
1.88194e-05
7.56605e-05
1.99498e-05
7.67524e-05
2.06181e-05
7.79029e-05
2.08897e-05
7.90951e-05
2.08251e-05
8.03082e-05
2.04808e-05
8.15189e-05
1.99104e-05
8.27036e-05
1.9164e-05
8.38405e-05
1.82878e-05
8.49117e-05
1.73233e-05
8.59037e-05
1.63066e-05
8.68083e-05
1.52678e-05
8.76218e-05
1.42312e-05
8.83445e-05
1.32157e-05
1.22351e-05
8.89799e-05
7.73995e-05
2.74911e-06
7.79618e-05
7.4039e-06
7.87403e-05
1.10736e-05
7.9659e-05
1.39477e-05
8.06728e-05
1.61397e-05
8.1755e-05
1.77372e-05
8.28878e-05
1.88171e-05
8.40566e-05
1.94492e-05
8.52472e-05
1.96991e-05
8.64439e-05
1.96283e-05
8.763e-05
1.92947e-05
8.87885e-05
1.8752e-05
8.99031e-05
1.80493e-05
9.09602e-05
1.72307e-05
9.19488e-05
1.63347e-05
9.28617e-05
1.53937e-05
9.3695e-05
1.44345e-05
9.44479e-05
1.34783e-05
9.51222e-05
1.25415e-05
1.16359e-05
9.57214e-05
8.43042e-05
2.44135e-06
8.50333e-05
6.67475e-06
8.60038e-05
1.01032e-05
8.71093e-05
1.28422e-05
8.82887e-05
1.49603e-05
8.95051e-05
1.65209e-05
9.07347e-05
1.75874e-05
9.19604e-05
1.82235e-05
9.31682e-05
1.84914e-05
9.43454e-05
1.84511e-05
9.54804e-05
1.81596e-05
9.65629e-05
1.76695e-05
9.75839e-05
1.70282e-05
9.85368e-05
1.62778e-05
9.94172e-05
1.54543e-05
0.000100223
1.45877e-05
0.000100955
1.37027e-05
0.000101615
1.28186e-05
0.000102206
1.19504e-05
1.1109e-05
0.000102733
9.187e-05
1.99293e-06
9.28069e-05
5.73787e-06
9.39892e-05
8.92088e-06
9.52871e-05
1.15443e-05
9.66273e-05
1.36201e-05
9.79652e-05
1.5183e-05
9.92724e-05
1.62802e-05
0.00010053
1.69654e-05
0.000101727
1.72947e-05
0.000102855
1.73237e-05
0.000103908
1.71062e-05
0.000104885
1.66924e-05
0.000105785
1.6128e-05
0.00010661
1.54533e-05
0.000107361
1.47033e-05
0.000108041
1.39071e-05
0.000108656
1.30885e-05
0.000109208
1.22665e-05
0.000109703
1.14555e-05
1.06668e-05
0.000110145
0.000100143
0.000101315
0.000102715
0.000104211
0.000105725
0.000107206
0.000108618
0.000109939
0.000111155
0.000112259
0.000113251
0.000114133
0.000114912
0.000115596
0.000116193
0.000116713
0.000117166
0.000117559
0.000117901
0.000118198
6.61348e-06
6.50823e-06
3.66846e-06
2.94502e-06
2.3387e-06
1.32976e-06
1.68838e-06
6.50328e-07
1.32898e-06
3.59399e-07
1.10233e-06
2.26648e-07
9.43334e-07
1.58994e-07
8.23799e-07
1.19535e-07
7.30001e-07
9.37977e-08
6.54306e-07
7.56952e-08
5.92043e-07
6.22629e-08
5.40219e-07
5.18239e-08
4.96904e-07
4.33145e-08
4.60914e-07
3.59904e-08
4.31639e-07
2.92754e-08
4.08957e-07
2.26818e-08
3.93093e-07
1.58635e-08
3.84492e-07
8.60098e-09
3.81888e-07
2.60453e-09
-1.71646e-09
1.41063e-05
1.01379e-05
1.05413e-05
6.51004e-06
7.88158e-06
3.98949e-06
6.06717e-06
2.46474e-06
4.84622e-06
1.58034e-06
4.00338e-06
1.06949e-06
3.39681e-06
7.65562e-07
2.94168e-06
5.74673e-07
2.58793e-06
4.47544e-07
2.30533e-06
3.58293e-07
2.07496e-06
2.92639e-07
1.88461e-06
2.42169e-07
1.72638e-06
2.01545e-07
1.59527e-06
1.67102e-07
1.48846e-06
1.36079e-07
1.40489e-06
1.06254e-07
1.3448e-06
7.59579e-08
1.30866e-06
4.47428e-08
1.29375e-06
1.75107e-08
6.15776e-10
1.95221e-05
1.22556e-05
1.65826e-05
9.44957e-06
1.36709e-05
6.90125e-06
1.12058e-05
4.92976e-06
9.2654e-06
3.52078e-06
7.77936e-06
2.55553e-06
6.64199e-06
1.90293e-06
5.75963e-06
1.45703e-06
5.06222e-06
1.14495e-06
4.50071e-06
9.19807e-07
4.04149e-06
7.51859e-07
3.66168e-06
6.21981e-07
3.34583e-06
5.17397e-07
3.08385e-06
4.29083e-07
2.86974e-06
3.5019e-07
2.70075e-06
2.75237e-07
2.57668e-06
2.00034e-07
2.49761e-06
1.2381e-07
2.45958e-06
5.5538e-08
1.41079e-08
2.42405e-05
1.36141e-05
2.20025e-05
1.16875e-05
1.93509e-05
9.55286e-06
1.67186e-05
7.56208e-06
1.43546e-05
5.88482e-06
1.23491e-05
4.56104e-06
1.0696e-05
3.55601e-06
9.34719e-06
2.80583e-06
8.24571e-06
2.24644e-06
7.34053e-06
1.82499e-06
6.59086e-06
1.50153e-06
5.96594e-06
1.2469e-06
5.44351e-06
1.03983e-06
5.00825e-06
8.64345e-07
4.65056e-06
7.07883e-07
4.36561e-06
5.60188e-07
4.15234e-06
4.13298e-07
4.01047e-06
2.65684e-07
3.93465e-06
1.31352e-07
4.75279e-08
2.87745e-05
1.45164e-05
2.71239e-05
1.33382e-05
2.49082e-05
1.17685e-05
2.24203e-05
1.005e-05
1.99236e-05
8.3815e-06
1.75957e-05
6.88891e-06
1.55252e-05
5.62659e-06
1.37344e-05
4.59661e-06
1.22083e-05
3.77253e-06
1.09158e-05
3.1175e-06
9.82268e-06
2.59461e-06
8.8982e-06
2.17138e-06
8.11727e-06
1.82075e-06
7.46126e-06
1.52036e-06
6.91776e-06
1.25139e-06
6.48014e-06
9.97808e-07
6.1466e-06
7.46837e-07
5.91675e-06
4.95535e-07
5.78423e-06
2.63869e-07
1.12672e-07
3.33358e-05
1.50985e-05
3.21547e-05
1.45193e-05
3.04028e-05
1.35204e-05
2.8228e-05
1.22248e-05
2.58279e-05
1.07816e-05
2.33896e-05
9.32717e-06
2.10541e-05
7.96211e-06
1.89067e-05
6.74408e-06
1.69854e-05
5.69382e-06
1.52962e-05
4.80669e-06
1.3827e-05
4.06376e-06
1.25584e-05
3.44002e-06
1.14699e-05
2.90922e-06
1.05442e-05
2.4461e-06
9.7686e-06
2.02697e-06
9.13625e-06
1.63015e-06
8.64555e-06
1.23755e-06
8.29689e-06
8.44195e-07
8.08391e-06
4.76843e-07
2.25095e-07
3.80345e-05
1.54326e-05
3.72288e-05
1.5325e-05
3.59087e-05
1.48405e-05
3.41177e-05
1.40157e-05
3.19685e-05
1.29308e-05
2.96077e-05
1.1688e-05
2.71809e-05
1.03889e-05
2.48076e-05
9.11741e-06
2.25708e-05
7.93057e-06
2.05189e-05
6.85865e-06
1.86727e-05
5.90989e-06
1.70357e-05
5.07704e-06
1.56017e-05
4.34323e-06
1.43616e-05
3.68625e-06
1.33073e-05
3.08118e-06
1.24351e-05
2.50244e-06
1.17455e-05
1.92711e-06
1.12417e-05
1.34796e-06
1.09194e-05
7.99209e-07
4.0487e-07
4.29228e-05
1.55623e-05
4.24247e-05
1.58231e-05
4.14885e-05
1.57767e-05
4.00955e-05
1.54087e-05
3.82853e-05
1.4741e-05
3.61459e-05
1.38274e-05
3.37932e-05
1.27416e-05
3.13477e-05
1.1563e-05
2.89157e-05
1.03626e-05
2.65795e-05
9.19484e-06
2.43952e-05
8.09421e-06
2.23962e-05
7.07603e-06
2.05996e-05
6.1398e-06
1.90128e-05
5.27306e-06
1.76391e-05
4.45484e-06
1.64826e-05
3.659e-06
1.55501e-05
2.85959e-06
1.48506e-05
2.04746e-06
1.43848e-05
1.26497e-06
6.77253e-07
4.80232e-05
1.55179e-05
4.77833e-05
1.6063e-05
4.71836e-05
1.63764e-05
4.61736e-05
1.64187e-05
4.47418e-05
1.61729e-05
4.29202e-05
1.56489e-05
4.07794e-05
1.48824e-05
3.84151e-05
1.39272e-05
3.59318e-05
1.28459e-05
3.34277e-05
1.16989e-05
3.09857e-05
1.05362e-05
2.86694e-05
9.39234e-06
2.65239e-05
8.2853e-06
2.45801e-05
7.21684e-06
2.28601e-05
6.17491e-06
2.1382e-05
5.13708e-06
2.01645e-05
4.07714e-06
1.92268e-05
2.98514e-06
1.85795e-05
1.91227e-06
1.07303e-06
5.33435e-05
1.53238e-05
5.33227e-05
1.60837e-05
5.30157e-05
1.66834e-05
5.23594e-05
1.70749e-05
5.13118e-05
1.72205e-05
4.98618e-05
1.7099e-05
4.80339e-05
1.67102e-05
4.58858e-05
1.60753e-05
4.34991e-05
1.52327e-05
4.09675e-05
1.42305e-05
3.83848e-05
1.31188e-05
3.58362e-05
1.19409e-05
3.33933e-05
1.07282e-05
3.11137e-05
9.49644e-06
2.90436e-05
8.24498e-06
2.72222e-05
6.95852e-06
2.56858e-05
5.61356e-06
2.447e-05
4.20095e-06
2.3601e-05
2.78126e-06
1.62818e-06
5.88823e-05
1.50023e-05
5.90469e-05
1.59192e-05
5.89917e-05
1.67386e-05
5.86524e-05
1.74142e-05
5.79725e-05
1.79005e-05
5.69127e-05
1.81587e-05
5.546e-05
1.81629e-05
5.36318e-05
1.79035e-05
5.14755e-05
1.73889e-05
4.90627e-05
1.66434e-05
4.64801e-05
1.57015e-05
4.38196e-05
1.46014e-05
4.11706e-05
1.33772e-05
3.86145e-05
1.20526e-05
3.62234e-05
1.06361e-05
3.40616e-05
9.12031e-06
3.21892e-05
7.48596e-06
3.06642e-05
5.72592e-06
2.95353e-05
3.91023e-06
2.38249e-06
6.4633e-05
1.45756e-05
6.49513e-05
1.56009e-05
6.51083e-05
1.65816e-05
6.50449e-05
1.74777e-05
6.47007e-05
1.82446e-05
6.40221e-05
1.88374e-05
6.29701e-05
1.9215e-05
6.15282e-05
1.93454e-05
5.97073e-05
1.92098e-05
5.75469e-05
1.88038e-05
5.51109e-05
1.81374e-05
5.24819e-05
1.72304e-05
4.97526e-05
1.61065e-05
4.70188e-05
1.47864e-05
4.43743e-05
1.32807e-05
4.19088e-05
1.15858e-05
3.97094e-05
9.68542e-06
3.78613e-05
7.57394e-06
3.64417e-05
5.32986e-06
3.37655e-06
7.05861e-05
1.40666e-05
7.10268e-05
1.51602e-05
7.13564e-05
1.6252e-05
7.1524e-05
1.731e-05
7.14728e-05
1.82958e-05
7.11447e-05
1.91655e-05
7.04866e-05
1.9873e-05
6.94585e-05
2.03736e-05
6.80399e-05
2.06284e-05
6.6236e-05
2.06077e-05
6.40796e-05
2.02939e-05
6.16296e-05
1.96804e-05
5.89667e-05
1.87693e-05
5.61871e-05
1.7566e-05
5.33957e-05
1.6072e-05
5.07024e-05
1.42791e-05
4.82191e-05
1.21687e-05
4.60602e-05
9.73287e-06
4.43345e-05
7.05556e-06
4.64676e-06
7.67322e-05
1.34999e-05
7.72629e-05
1.46296e-05
7.77245e-05
1.57904e-05
7.80753e-05
1.69592e-05
7.82659e-05
1.81052e-05
7.82409e-05
1.91905e-05
7.79431e-05
2.01708e-05
7.73194e-05
2.09973e-05
7.63275e-05
2.16202e-05
7.49434e-05
2.19918e-05
7.31673e-05
2.207e-05
7.10269e-05
2.18207e-05
6.85782e-05
2.1218e-05
6.59024e-05
2.02418e-05
6.31018e-05
1.88727e-05
6.02941e-05
1.70868e-05
5.76088e-05
1.4854e-05
5.51847e-05
1.21569e-05
5.31612e-05
9.07914e-06
6.2184e-06
8.30642e-05
1.29016e-05
8.36514e-05
1.40424e-05
8.42029e-05
1.5239e-05
8.46863e-05
1.64758e-05
8.5061e-05
1.77304e-05
8.52789e-05
1.89726e-05
8.52857e-05
2.0164e-05
8.50247e-05
2.12583e-05
8.44423e-05
2.22027e-05
8.34944e-05
2.29397e-05
8.21538e-05
2.34106e-05
8.04168e-05
2.35577e-05
7.8308e-05
2.33269e-05
7.58821e-05
2.26676e-05
7.32235e-05
2.15313e-05
7.04428e-05
1.98675e-05
6.76732e-05
1.76235e-05
6.50669e-05
1.47632e-05
6.27845e-05
1.13615e-05
8.09744e-06
8.9581e-05
1.23005e-05
9.01888e-05
1.34347e-05
9.07857e-05
1.4642e-05
9.1348e-05
1.59135e-05
9.18444e-05
1.7234e-05
9.22355e-05
1.85815e-05
9.24745e-05
1.9925e-05
9.25084e-05
2.12244e-05
9.22814e-05
2.24297e-05
9.17398e-05
2.34813e-05
9.08383e-05
2.4312e-05
8.95479e-05
2.48481e-05
8.78625e-05
2.50123e-05
8.5805e-05
2.47252e-05
8.34306e-05
2.39057e-05
8.08277e-05
2.24704e-05
7.81159e-05
2.03353e-05
7.54432e-05
1.7436e-05
7.29752e-05
1.38295e-05
1.02631e-05
9.6296e-05
1.17259e-05
9.68876e-05
1.28431e-05
9.74844e-05
1.40452e-05
9.80699e-05
1.5328e-05
9.86212e-05
1.66827e-05
9.91087e-05
1.8094e-05
9.94951e-05
1.95386e-05
9.97358e-05
2.09838e-05
9.978e-05
2.23854e-05
9.9574e-05
2.36873e-05
9.90654e-05
2.48206e-05
9.82094e-05
2.57041e-05
9.69762e-05
2.62455e-05
9.53586e-05
2.63428e-05
9.33781e-05
2.58862e-05
9.10895e-05
2.4759e-05
8.85821e-05
2.28427e-05
8.59787e-05
2.00394e-05
8.34275e-05
1.63807e-05
1.26642e-05
0.000103242
1.12168e-05
0.000103773
1.23122e-05
0.000104318
1.34996e-05
0.000104868
1.47784e-05
0.000105406
1.61444e-05
0.000105912
1.75879e-05
0.000106359
1.90922e-05
0.000106711
2.06314e-05
0.000106928
2.21685e-05
0.000106962
2.36529e-05
0.000106764
2.50192e-05
0.000106283
2.61852e-05
0.000105476
2.70522e-05
0.000104314
2.75049e-05
0.000102787
2.74132e-05
0.000100911
2.66346e-05
9.87334e-05
2.50206e-05
9.63316e-05
2.24411e-05
9.38126e-05
1.88997e-05
1.52193e-05
0.000110572
1.07896e-05
0.000111017
1.18675e-05
0.000111474
1.30418e-05
0.000111939
1.43139e-05
0.000112401
1.56822e-05
0.000112849
1.71407e-05
0.000113264
1.86771e-05
0.000113624
2.02711e-05
0.000113901
2.18914e-05
0.00011406
2.3494e-05
0.00011406
2.50189e-05
0.000113857
2.63881e-05
0.000113405
2.75039e-05
0.000112662
2.82481e-05
0.000111593
2.84826e-05
0.000110175
2.80522e-05
0.000108404
2.67922e-05
0.000106296
2.45492e-05
0.000103903
2.12929e-05
1.78374e-05
0.000118486
0.000118792
0.000119116
0.000119456
0.00011981
0.00012017
0.000120527
0.000120868
0.000121174
0.00012142
0.000121574
0.000121596
0.00012144
0.000121055
0.000120386
0.000119376
0.000117967
0.000116103
0.000113726
)
;

boundaryField
{
    zeroGradient_plane
    {
        type            calculated;
        value           nonuniform List<scalar> 
80
(
1.35319e-06
4.56537e-06
7.52144e-06
1.00481e-05
1.21059e-05
1.37023e-05
1.4868e-05
1.56445e-05
1.60788e-05
1.62194e-05
1.61145e-05
1.58101e-05
1.5349e-05
1.47698e-05
1.41061e-05
1.33868e-05
1.26361e-05
1.18733e-05
1.11138e-05
1.03688e-05
1.05022e-05
1.15618e-05
1.27177e-05
1.39733e-05
1.53288e-05
1.67806e-05
1.83197e-05
1.99299e-05
2.15854e-05
2.32482e-05
2.48654e-05
2.63662e-05
2.76596e-05
2.86329e-05
2.91516e-05
2.90621e-05
2.82014e-05
2.64133e-05
2.36695e-05
2.08133e-05
3.83604e-07
1.29142e-06
2.44609e-06
3.90123e-06
5.71909e-06
7.97149e-06
1.07396e-05
1.41124e-05
1.81837e-05
2.30458e-05
2.87809e-05
3.54477e-05
4.30643e-05
5.15895e-05
6.09055e-05
7.08095e-05
8.10265e-05
9.12576e-05
0.000101284
0.00011075
-2.36879e-06
-7.54527e-06
-1.20046e-05
-1.57262e-05
-1.88124e-05
-2.1379e-05
-2.35282e-05
-2.53394e-05
-2.68644e-05
-2.81261e-05
-2.91191e-05
-2.98116e-05
-3.01481e-05
-3.00534e-05
-2.94337e-05
-2.81774e-05
-2.61505e-05
-2.31549e-05
-1.88037e-05
-1.25821e-05
)
;
    }
    inlet
    {
        type            calculated;
        value           nonuniform List<scalar> 
20
(
-1.99006e-05
-2.16598e-05
-2.35745e-05
-2.56584e-05
-2.79266e-05
-3.03953e-05
-3.30822e-05
-3.60066e-05
-3.91895e-05
-4.26538e-05
-4.64243e-05
-5.05282e-05
-5.49948e-05
-5.98562e-05
-6.51474e-05
-7.09063e-05
-7.71743e-05
-8.39964e-05
-9.14216e-05
-9.95031e-05
)
;
    }
    plate
    {
        type            calculated;
        value           uniform 0;
    }
    frontAndBack
    {
        type            empty;
        value           nonuniform 0();
    }
}


// ************************************************************************* //
