/*--------------------------------*- C++ -*----------------------------------*\
| =========                 |                                                 |
| \\      /  F ield         | OpenFOAM: The Open Source CFD Toolbox           |
|  \\    /   O peration     | Version:  v1906                                 |
|   \\  /    A nd           | Web:      www.OpenFOAM.com                      |
|    \\/     M anipulation  |                                                 |
\*---------------------------------------------------------------------------*/
FoamFile
{
    version     2.0;
    format      ascii;
    class       volVectorField;
    location    "0.25";
    object      U;
}
// * * * * * * * * * * * * * * * * * * * * * * * * * * * * * * * * * * * * * //

dimensions      [0 1 -1 0 0 0 0];


internalField   nonuniform List<vector> 
800
(
(0.997848 0.0243397 0)
(0.990615 0.083254 0)
(0.982731 0.143717 0)
(0.975046 0.204633 0)
(0.967498 0.266225 0)
(0.96014 0.329132 0)
(0.952931 0.394115 0)
(0.945821 0.461878 0)
(0.938739 0.532891 0)
(0.931593 0.607202 0)
(0.924258 0.684221 0)
(0.916563 0.762495 0)
(0.90825 0.839459 0)
(0.898942 0.911177 0)
(0.888149 0.971985 0)
(0.874843 1.01398 0)
(0.85586 1.02643 0)
(0.829436 0.99428 0)
(0.811006 0.890733 0)
(0.782384 0.663104 0)
(0.997941 0.0254604 0)
(0.990848 0.0848194 0)
(0.98302 0.145464 0)
(0.975406 0.206502 0)
(0.967955 0.268211 0)
(0.960727 0.331244 0)
(0.953691 0.396374 0)
(0.946816 0.464311 0)
(0.940061 0.53554 0)
(0.933381 0.610124 0)
(0.926726 0.687499 0)
(0.920039 0.766249 0)
(0.913254 0.843875 0)
(0.906304 0.916542 0)
(0.899202 0.97877 0)
(0.891934 1.02298 0)
(0.883633 1.03916 0)
(0.87467 1.01472 0)
(0.873565 0.930039 0)
(0.864673 0.748036 0)
(0.99812 0.0268923 0)
(0.991324 0.0868767 0)
(0.98364 0.147766 0)
(0.976198 0.208957 0)
(0.968972 0.270804 0)
(0.962038 0.33398 0)
(0.955395 0.399264 0)
(0.949053 0.467372 0)
(0.943036 0.538788 0)
(0.937401 0.613575 0)
(0.932247 0.691162 0)
(0.927742 0.770119 0)
(0.924157 0.847909 0)
(0.921907 0.920631 0)
(0.921626 0.982719 0)
(0.924084 1.02654 0)
(0.929521 1.04216 0)
(0.937739 1.01794 0)
(0.948001 0.940094 0)
(0.943647 0.7919 0)
(0.998352 0.028219 0)
(0.992003 0.0888682 0)
(0.984597 0.150005 0)
(0.97746 0.211326 0)
(0.970618 0.273274 0)
(0.964177 0.336535 0)
(0.958182 0.401888 0)
(0.95271 0.470034 0)
(0.947885 0.54143 0)
(0.943903 0.61609 0)
(0.941063 0.693368 0)
(0.939797 0.771707 0)
(0.940705 0.848384 0)
(0.944555 0.919239 0)
(0.952217 0.978437 0)
(0.964342 1.01831 0)
(0.980578 1.02966 0)
(0.998839 1.00316 0)
(1.014 0.931507 0)
(1.01314 0.812961 0)
(0.998609 0.029461 0)
(0.992844 0.0908339 0)
(0.985887 0.15223 0)
(0.979223 0.213657 0)
(0.972955 0.275655 0)
(0.967236 0.33892 0)
(0.962176 0.404216 0)
(0.957939 0.472203 0)
(0.954768 0.54327 0)
(0.953021 0.617332 0)
(0.95319 0.693587 0)
(0.955928 0.770268 0)
(0.962019 0.844389 0)
(0.972286 0.911549 0)
(0.987346 0.965876 0)
(1.00713 1.00029 0)
(1.03015 1.00738 0)
(1.05295 0.981207 0)
(1.06967 0.919641 0)
(1.07188 0.826921 0)
(0.998871 0.0306366 0)
(0.993812 0.0927974 0)
(0.987499 0.154467 0)
(0.981507 0.215968 0)
(0.976034 0.277943 0)
(0.971293 0.341095 0)
(0.967473 0.40615 0)
(0.964836 0.4737 0)
(0.963751 0.544022 0)
(0.96472 0.616873 0)
(0.96838 0.691246 0)
(0.975482 0.765134 0)
(0.986791 0.835342 0)
(1.00288 0.897432 0)
(1.02382 0.945928 0)
(1.04867 0.974925 0)
(1.0751 0.979227 0)
(1.09927 0.955925 0)
(1.11619 0.905866 0)
(1.12089 0.834501 0)
(0.999123 0.0317108 0)
(0.994871 0.0946888 0)
(0.989409 0.156625 0)
(0.984313 0.218148 0)
(0.979878 0.279994 0)
(0.976384 0.342865 0)
(0.974108 0.407428 0)
(0.973406 0.474169 0)
(0.974755 0.543218 0)
(0.978753 0.614135 0)
(0.98609 0.685698 0)
(0.997469 0.755709 0)
(1.01344 0.820919 0)
(1.03416 0.877148 0)
(1.05905 0.919699 0)
(1.08657 0.944124 0)
(1.11404 0.947264 0)
(1.13799 0.928297 0)
(1.1548 0.889346 0)
(1.1617 0.835318 0)
(0.999356 0.0326403 0)
(0.995989 0.096408 0)
(0.991581 0.158573 0)
(0.987615 0.220034 0)
(0.984471 0.281604 0)
(0.982493 0.343974 0)
(0.982035 0.407725 0)
(0.983535 0.47321 0)
(0.987533 0.540383 0)
(0.994653 0.608609 0)
(1.00553 0.676487 0)
(1.0207 0.741745 0)
(1.04037 0.801287 0)
(1.06424 0.851458 0)
(1.09127 0.888557 0)
(1.11958 0.909558 0)
(1.14667 0.912863 0)
(1.16977 0.898835 0)
(1.18645 0.869846 0)
(1.19524 0.829794 0)
(0.999566 0.0333884 0)
(0.997137 0.0978471 0)
(0.99397 0.160155 0)
(0.991365 0.221432 0)
(0.989755 0.282542 0)
(0.989534 0.344141 0)
(0.991114 0.406706 0)
(0.994976 0.47044 0)
(1.00167 0.535122 0)
(1.01177 0.59995 0)
(1.02577 0.663433 0)
(1.04395 0.723374 0)
(1.06616 0.777023 0)
(1.09174 0.821414 0)
(1.11939 0.853865 0)
(1.14727 0.872531 0)
(1.17323 0.87685 0)
(1.19525 0.867708 0)
(1.21179 0.847253 0)
(1.22209 0.818414 0)
(0.999751 0.0339215 0)
(0.998289 0.0988894 0)
(0.996519 0.161197 0)
(0.995481 0.222124 0)
(0.995619 0.282546 0)
(0.997346 0.343064 0)
(1.0011 0.40404 0)
(1.00735 0.465527 0)
(1.01662 0.527151 0)
(1.02935 0.58801 0)
(1.04584 0.64663 0)
(1.06609 0.70103 0)
(1.08969 0.748936 0)
(1.11575 0.788114 0)
(1.14293 0.816778 0)
(1.16959 0.833951 0)
(1.19406 0.839669 0)
(1.21493 0.834952 0)
(1.23124 0.821571 0)
(1.24261 0.801677 0)
(0.999914 0.0342073 0)
(0.999423 0.0994098 0)
(0.999165 0.161507 0)
(0.999858 0.221863 0)
(1.0019 0.281332 0)
(1.00569 0.34044 0)
(1.01165 0.399428 0)
(1.02019 0.458217 0)
(1.03174 0.516329 0)
(1.04658 0.572839 0)
(1.06481 0.626398 0)
(1.08621 0.675342 0)
(1.11017 0.717919 0)
(1.13575 0.75257 0)
(1.1617 0.778217 0)
(1.1867 0.794457 0)
(1.20951 0.801621 0)
(1.22917 0.800671 0)
(1.2451 0.793001 0)
(1.25711 0.780181 0)
(1.00006 0.0342146 0)
(1.00052 0.0992788 0)
(1.00184 0.160878 0)
(1.00437 0.220394 0)
(1.00841 0.278619 0)
(1.01428 0.335987 0)
(1.02235 0.39263 0)
(1.03295 0.448365 0)
(1.04637 0.502669 0)
(1.06272 0.554674 0)
(1.08193 0.603231 0)
(1.10361 0.647043 0)
(1.1271 0.684856 0)
(1.1515 0.715672 0)
(1.17576 0.738922 0)
(1.19886 0.75455 0)
(1.21992 0.762999 0)
(1.2383 0.765102 0)
(1.25364 0.761929 0)
(1.26587 0.754625 0)
(1.00019 0.0339125 0)
(1.00157 0.0983678 0)
(1.00448 0.159108 0)
(1.00888 0.217466 0)
(1.01492 0.274144 0)
(1.0228 0.329475 0)
(1.03279 0.383491 0)
(1.04511 0.435948 0)
(1.05989 0.486333 0)
(1.07713 0.533895 0)
(1.09659 0.577729 0)
(1.11785 0.616895 0)
(1.14025 0.650571 0)
(1.163 0.678186 0)
(1.18529 0.699512 0)
(1.20636 0.714683 0)
(1.2256 0.724158 0)
(1.2426 0.728625 0)
(1.25714 0.7289 0)
(1.26919 0.725825 0)
(1.0003 0.0332692 0)
(1.00258 0.0965509 0)
(1.00704 0.155999 0)
(1.01329 0.21285 0)
(1.02123 0.267688 0)
(1.03095 0.320739 0)
(1.04258 0.371955 0)
(1.0562 0.421066 0)
(1.07183 0.467611 0)
(1.08934 0.510988 0)
(1.10846 0.55054 0)
(1.12873 0.585643 0)
(1.14959 0.615815 0)
(1.17041 0.640789 0)
(1.19057 0.660549 0)
(1.20953 0.675324 0)
(1.22689 0.685542 0)
(1.24239 0.691761 0)
(1.25591 0.694606 0)
(1.26744 0.694703 0)
(1.00042 0.0322478 0)
(1.00354 0.0936998 0)
(1.00951 0.151365 0)
(1.01751 0.206343 0)
(1.02721 0.259084 0)
(1.03853 0.309697 0)
(1.05144 0.358071 0)
(1.06593 0.403931 0)
(1.08189 0.446889 0)
(1.09916 0.486501 0)
(1.11743 0.522325 0)
(1.1363 0.553996 0)
(1.15532 0.58128 0)
(1.17401 0.604111 0)
(1.19194 0.622599 0)
(1.20875 0.637008 0)
(1.22417 0.647719 0)
(1.23806 0.655188 0)
(1.25034 0.659897 0)
(1.26104 0.662319 0)
(1.00054 0.0308003 0)
(1.0045 0.0896772 0)
(1.01193 0.145024 0)
(1.02158 0.197775 0)
(1.03284 0.248218 0)
(1.04546 0.296341 0)
(1.05929 0.34197 0)
(1.0742 0.384835 0)
(1.09004 0.424621 0)
(1.10661 0.461013 0)
(1.12364 0.493745 0)
(1.14082 0.522638 0)
(1.15779 0.547625 0)
(1.17425 0.568766 0)
(1.1899 0.586237 0)
(1.20451 0.600311 0)
(1.21793 0.611324 0)
(1.23008 0.619652 0)
(1.24093 0.625674 0)
(1.25052 0.629761 0)
(1.00069 0.0288601 0)
(1.00556 0.08434 0)
(1.01443 0.136828 0)
(1.02563 0.187044 0)
(1.03824 0.235074 0)
(1.05186 0.280768 0)
(1.06624 0.323882 0)
(1.08119 0.364143 0)
(1.09651 0.401292 0)
(1.11203 0.435112 0)
(1.12753 0.465457 0)
(1.14278 0.492268 0)
(1.15757 0.515581 0)
(1.17169 0.535521 0)
(1.185 0.552291 0)
(1.19736 0.566154 0)
(1.2087 0.577405 0)
(1.219 0.586358 0)
(1.22826 0.593324 0)
(1.23652 0.598599 0)
(1.00094 0.0262533 0)
(1.00691 0.0774171 0)
(1.01727 0.126577 0)
(1.02989 0.174088 0)
(1.04363 0.21976 0)
(1.05796 0.263261 0)
(1.07257 0.304253 0)
(1.08723 0.342433 0)
(1.10176 0.37756 0)
(1.116 0.409472 0)
(1.12981 0.438092 0)
(1.14305 0.463431 0)
(1.15561 0.48558 0)
(1.1674 0.504702 0)
(1.17834 0.521009 0)
(1.1884 0.534752 0)
(1.19757 0.546197 0)
(1.20587 0.555617 0)
(1.21332 0.563275 0)
(1.21997 0.569421 0)
(1.00141 0.0222363 0)
(1.00889 0.0677041 0)
(1.02077 0.112995 0)
(1.03465 0.157714 0)
(1.04924 0.201258 0)
(1.06398 0.243068 0)
(1.07852 0.282678 0)
(1.0926 0.319717 0)
(1.10607 0.353908 0)
(1.11882 0.385074 0)
(1.13077 0.413133 0)
(1.1419 0.438095 0)
(1.15219 0.460051 0)
(1.16164 0.479154 0)
(1.17026 0.495605 0)
(1.1781 0.509635 0)
(1.18519 0.521491 0)
(1.19157 0.53142 0)
(1.19729 0.539664 0)
(1.20242 0.546449 0)
(1.00205 0.0156279 0)
(1.01118 0.0539763 0)
(1.02439 0.0948469 0)
(1.03929 0.136443 0)
(1.05461 0.177628 0)
(1.06977 0.217615 0)
(1.08438 0.255833 0)
(1.09818 0.291857 0)
(1.11098 0.325376 0)
(1.12268 0.356184 0)
(1.13323 0.384172 0)
(1.14267 0.409315 0)
(1.15102 0.431666 0)
(1.15837 0.451338 0)
(1.16481 0.468492 0)
(1.17042 0.483322 0)
(1.1753 0.496038 0)
(1.17954 0.506861 0)
(1.18322 0.516008 0)
(1.18642 0.523686 0)
(0.424046 0.23483 0)
(0.242674 0.0804755 0)
(0.141779 0.0267891 0)
(0.0956543 0.00935519 0)
(0.0730592 0.00376741 0)
(0.0596135 0.00189931 0)
(0.0505001 0.00118008 0)
(0.0438072 0.000827887 0)
(0.0386229 0.0006142 0)
(0.0344724 0.000468122 0)
(0.0310767 0.000362133 0)
(0.028258 0.000282208 0)
(0.0259004 0.000219835 0)
(0.0239301 0.000169356 0)
(0.0223045 0.000126782 0)
(0.021008 8.91594e-05 0)
(0.0200411 5.48376e-05 0)
(0.0194446 2.24174e-05 0)
(0.0191607 7.36818e-07 0)
(0.0192614 -1.43285e-05 0)
(0.733105 0.443107 0)
(0.56301 0.224717 0)
(0.414586 0.108169 0)
(0.31274 0.0536123 0)
(0.245783 0.0286078 0)
(0.200297 0.0167704 0)
(0.168152 0.0107334 0)
(0.144467 0.00733689 0)
(0.126317 0.00524647 0)
(0.111964 0.00386909 0)
(0.100348 0.00291392 0)
(0.0907908 0.00222344 0)
(0.0828513 0.00170508 0)
(0.0762455 0.00130085 0)
(0.0708014 0.000972343 0)
(0.0664374 0.000693309 0)
(0.063131 0.000447366 0)
(0.0609615 0.000227794 0)
(0.059783 6.64547e-05 0)
(0.0597448 -2.418e-05 0)
(0.881402 0.575141 0)
(0.767551 0.376051 0)
(0.63665 0.232321 0)
(0.520375 0.141423 0)
(0.427574 0.0872128 0)
(0.356233 0.0555679 0)
(0.301856 0.0368991 0)
(0.260029 0.0254991 0)
(0.227265 0.0182268 0)
(0.20109 0.0133823 0)
(0.179814 0.010024 0)
(0.162284 0.00760949 0)
(0.147718 0.00581175 0)
(0.135594 0.00442422 0)
(0.125586 0.00331071 0)
(0.117519 0.00237918 0)
(0.111329 0.00157044 0)
(0.107104 0.000864798 0)
(0.104629 0.000325342 0)
(0.104094 3.84741e-05 0)
(0.978721 0.658105 0)
(0.905776 0.496798 0)
(0.805675 0.355017 0)
(0.699289 0.24562 0)
(0.600571 0.167737 0)
(0.515379 0.114953 0)
(0.444647 0.0799641 0)
(0.38689 0.0567726 0)
(0.339841 0.0411781 0)
(0.301319 0.030456 0)
(0.269527 0.0228896 0)
(0.243089 0.0173996 0)
(0.22099 0.0132976 0)
(0.202517 0.0101333 0)
(0.187197 0.00760388 0)
(0.174763 0.0055024 0)
(0.1651 0.00369342 0)
(0.158293 0.00213081 0)
(0.154071 0.000911613 0)
(0.152654 0.000251585 0)
(1.0521 0.712243 0)
(1.00563 0.58502 0)
(0.933814 0.458927 0)
(0.846786 0.347623 0)
(0.75553 0.257281 0)
(0.668113 0.188241 0)
(0.589086 0.137521 0)
(0.520141 0.10104 0)
(0.461159 0.0749704 0)
(0.411151 0.0562585 0)
(0.368868 0.0426647 0)
(0.333111 0.0326149 0)
(0.302873 0.0250208 0)
(0.277374 0.0191294 0)
(0.256065 0.0144144 0)
(0.238615 0.0105071 0)
(0.224875 0.00716073 0)
(0.214925 0.00428314 0)
(0.208468 0.00200564 0)
(0.205759 0.000718098 0)
(1.11034 0.748101 0)
(1.08141 0.648773 0)
(1.03207 0.542475 0)
(0.965714 0.439223 0)
(0.888672 0.346524 0)
(0.807688 0.268363 0)
(0.728302 0.205536 0)
(0.654189 0.156698 0)
(0.58724 0.119513 0)
(0.528035 0.0914688 0)
(0.47636 0.0703288 0)
(0.431621 0.0542794 0)
(0.393121 0.0419287 0)
(0.360219 0.0322359 0)
(0.332413 0.0244314 0)
(0.309385 0.0179534 0)
(0.290992 0.0124148 0)
(0.277337 0.00765548 0)
(0.268129 0.00384062 0)
(0.263696 0.00157402 0)
(1.15765 0.770227 0)
(1.14077 0.693473 0)
(1.10836 0.606853 0)
(1.06045 0.516559 0)
(0.999671 0.428832 0)
(0.930243 0.348613 0)
(0.856823 0.278871 0)
(0.783537 0.220617 0)
(0.713452 0.173382 0)
(0.648492 0.135832 0)
(0.589617 0.106301 0)
(0.537116 0.083132 0)
(0.490886 0.0648603 0)
(0.450655 0.0502703 0)
(0.41614 0.0383911 0)
(0.387149 0.0284722 0)
(0.363625 0.0199736 0)
(0.345743 0.0126516 0)
(0.33327 0.00670564 0)
(0.32667 0.00299724 0)
(1.196 0.781229 0)
(1.18768 0.722677 0)
(1.16785 0.653913 0)
(1.13519 0.578271 0)
(1.09003 0.500015 0)
(1.03427 0.423466 0)
(0.970929 0.352218 0)
(0.903442 0.288666 0)
(0.835055 0.233917 0)
(0.768415 0.187996 0)
(0.70542 0.150188 0)
(0.647262 0.119385 0)
(0.59459 0.094356 0)
(0.547692 0.0739104 0)
(0.506681 0.0569909 0)
(0.471634 0.0427135 0)
(0.442683 0.0304046 0)
(0.420158 0.0197359 0)
(0.403946 0.0109472 0)
(0.394742 0.00521528 0)
(1.22639 0.782855 0)
(1.22426 0.738992 0)
(1.21378 0.68574 0)
(1.19325 0.624572 0)
(1.16182 0.557963 0)
(1.11978 0.489007 0)
(1.06852 0.4209 0)
(1.01027 0.356427 0)
(0.947698 0.297612 0)
(0.883468 0.24559 0)
(0.819925 0.200675 0)
(0.758936 0.162544 0)
(0.701858 0.130476 0)
(0.649626 0.103545 0)
(0.602874 0.0807815 0)
(0.562082 0.0612765 0)
(0.527697 0.044283 0)
(0.500296 0.0294135 0)
(0.47996 0.016965 0)
(0.467754 0.00851098 0)
(1.24947 0.776414 0)
(1.25181 0.744398 0)
(1.24823 0.704284 0)
(1.2371 0.65644 0)
(1.21711 0.602011 0)
(1.1876 0.542852 0)
(1.14876 0.481292 0)
(1.10158 0.419796 0)
(1.04778 0.360613 0)
(0.989499 0.305497 0)
(0.92899 0.255568 0)
(0.868391 0.211303 0)
(0.80955 0.172637 0)
(0.753966 0.13911 0)
(0.702833 0.110028 0)
(0.657117 0.0846062 0)
(0.617678 0.0621238 0)
(0.585443 0.0421908 0)
(0.560764 0.0251963 0)
(0.545237 0.0132237 0)
(1.26571 0.763047 0)
(1.27119 0.740532 0)
(1.27262 0.71133 0)
(1.26858 0.675209 0)
(1.25772 0.632446 0)
(1.23897 0.583896 0)
(1.21173 0.530956 0)
(1.17606 0.475414 0)
(1.13267 0.419224 0)
(1.08292 0.36424 0)
(1.02855 0.311998 0)
(0.971546 0.26357 0)
(0.913902 0.219519 0)
(0.857468 0.17994 0)
(0.803891 0.144559 0)
(0.754624 0.112863 0)
(0.710986 0.0842833 0)
(0.674326 0.0585113 0)
(0.645328 0.0360841 0)
(0.626306 0.019742 0)
(1.27552 0.743854 0)
(1.28308 0.728877 0)
(1.288 0.708571 0)
(1.28913 0.682418 0)
(1.28527 0.650193 0)
(1.27525 0.612056 0)
(1.25812 0.568616 0)
(1.23331 0.520916 0)
(1.20075 0.470335 0)
(1.16095 0.418435 0)
(1.11499 0.366758 0)
(1.06435 0.316643 0)
(1.01081 0.26909 0)
(0.956275 0.224691 0)
(0.902634 0.183635 0)
(0.851703 0.145786 0)
(0.805229 0.110839 0)
(0.764989 0.0786667 0)
(0.732021 0.0500248 0)
(0.709544 0.0284822 0)
(1.2793 0.719962 0)
(1.28808 0.710877 0)
(1.29525 0.697676 0)
(1.29995 0.679753 0)
(1.30119 0.656629 0)
(1.2979 0.628046 0)
(1.28903 0.594046 0)
(1.27371 0.555024 0)
(1.25136 0.511733 0)
(1.22184 0.465225 0)
(1.18549 0.416736 0)
(1.14318 0.367539 0)
(1.0962 0.318785 0)
(1.04621 0.271377 0)
(0.995067 0.225892 0)
(0.94473 0.182581 0)
(0.897239 0.141469 0)
(0.85472 0.102689 0)
(0.81852 0.0672926 0)
(0.792922 0.0398489 0)
(1.2775 0.692554 0)
(1.28677 0.687987 0)
(1.29519 0.680339 0)
(1.30213 0.669019 0)
(1.30682 0.653462 0)
(1.30836 0.633196 0)
(1.30581 0.607913 0)
(1.29821 0.577535 0)
(1.28473 0.542268 0)
(1.2648 0.502614 0)
(1.23822 0.459342 0)
(1.2052 0.413404 0)
(1.16647 0.365822 0)
(1.1232 0.317557 0)
(1.07695 0.269396 0)
(1.02957 0.221882 0)
(0.983183 0.175355 0)
(0.940078 0.130245 0)
(0.90179 0.087947 0)
(0.873764 0.0541734 0)
(1.27062 0.662922 0)
(1.2798 0.661743 0)
(1.28863 0.658331 0)
(1.29669 0.652158 0)
(1.30341 0.64267 0)
(1.30811 0.629323 0)
(1.30998 0.611628 0)
(1.30816 0.589215 0)
(1.30178 0.561889 0)
(1.29007 0.529679 0)
(1.27245 0.49286 0)
(1.24867 0.451942 0)
(1.21888 0.407615 0)
(1.18371 0.360658 0)
(1.14424 0.311841 0)
(1.10198 0.261827 0)
(1.05885 0.211172 0)
(1.0171 0.160563 0)
(0.978214 0.111744 0)
(0.948833 0.0716393 0)
(1.25926 0.632359 0)
(1.26784 0.633668 0)
(1.2764 0.633412 0)
(1.28466 0.631146 0)
(1.29223 0.626373 0)
(1.29861 0.618556 0)
(1.30319 0.607148 0)
(1.30525 0.591629 0)
(1.30401 0.571557 0)
(1.29868 0.546616 0)
(1.28854 0.516667 0)
(1.27304 0.481772 0)
(1.25191 0.442198 0)
(1.22528 0.398385 0)
(1.19368 0.350884 0)
(1.15814 0.300281 0)
(1.12018 0.247184 0)
(1.08169 0.192436 0)
(1.04392 0.13807 0)
(1.01459 0.0921849 0)
(1.24414 0.602622 0)
(1.25173 0.605714 0)
(1.25947 0.607738 0)
(1.26719 0.608332 0)
(1.27463 0.607071 0)
(1.28145 0.603469 0)
(1.28722 0.596992 0)
(1.2914 0.587076 0)
(1.29337 0.573158 0)
(1.29243 0.554715 0)
(1.28788 0.531311 0)
(1.27908 0.502642 0)
(1.26551 0.468567 0)
(1.24692 0.429127 0)
(1.22338 0.38453 0)
(1.1954 0.335126 0)
(1.16396 0.281413 0)
(1.13036 0.224242 0)
(1.09537 0.165837 0)
(1.06769 0.115313 0)
(1.22615 0.574487 0)
(1.23236 0.578891 0)
(1.2388 0.582597 0)
(1.24535 0.585308 0)
(1.25188 0.586664 0)
(1.25816 0.586237 0)
(1.26391 0.58353 0)
(1.26875 0.577988 0)
(1.27224 0.569006 0)
(1.27384 0.555959 0)
(1.27296 0.538236 0)
(1.26899 0.51528 0)
(1.26136 0.486637 0)
(1.24961 0.451996 0)
(1.23351 0.411218 0)
(1.21307 0.364356 0)
(1.18872 0.311695 0)
(1.16105 0.253982 0)
(1.1302 0.19348 0)
(1.1057 0.140073 0)
(1.20718 0.552216 0)
(1.21196 0.557449 0)
(1.21692 0.562183 0)
(1.22198 0.566171 0)
(1.22708 0.569109 0)
(1.23209 0.570626 0)
(1.23686 0.570284 0)
(1.24116 0.567572 0)
(1.24471 0.561913 0)
(1.24718 0.552677 0)
(1.24813 0.539196 0)
(1.24711 0.520804 0)
(1.24359 0.496872 0)
(1.2371 0.466861 0)
(1.22719 0.430363 0)
(1.21355 0.387159 0)
(1.19604 0.33729 0)
(1.17452 0.281279 0)
(1.14845 0.221216 0)
(1.12816 0.167429 0)
(1.18936 0.530365 0)
(1.19233 0.536607 0)
(1.1955 0.542514 0)
(1.19885 0.547874 0)
(1.20236 0.552426 0)
(1.20596 0.555849 0)
(1.2096 0.557755 0)
(1.21315 0.557687 0)
(1.21645 0.555112 0)
(1.21928 0.549422 0)
(1.22136 0.539948 0)
(1.22233 0.525974 0)
(1.22174 0.506771 0)
(1.21911 0.481639 0)
(1.21389 0.44996 0)
(1.20552 0.411272 0)
(1.19341 0.36537 0)
(1.17668 0.312566 0)
(1.15443 0.254892 0)
(1.13768 0.202793 0)
)
;

boundaryField
{
    zeroGradient_plane
    {
        type            zeroGradient;
    }
    inlet
    {
        type            fixedValue;
        value           uniform (1 0 0);
    }
    plate
    {
        type            noSlip;
    }
    frontAndBack
    {
        type            empty;
    }
}


// ************************************************************************* //
