/*--------------------------------*- C++ -*----------------------------------*\
| =========                 |                                                 |
| \\      /  F ield         | OpenFOAM: The Open Source CFD Toolbox           |
|  \\    /   O peration     | Version:  v1906                                 |
|   \\  /    A nd           | Web:      www.OpenFOAM.com                      |
|    \\/     M anipulation  |                                                 |
\*---------------------------------------------------------------------------*/
FoamFile
{
    version     2.0;
    format      ascii;
    class       volScalarField;
    location    "0.4";
    object      p;
}
// * * * * * * * * * * * * * * * * * * * * * * * * * * * * * * * * * * * * * //

dimensions      [0 2 -2 0 0 0 0];


internalField   nonuniform List<scalar> 
4800
(
-2.49462e-11
1.40234e-05
4.53962e-05
8.7085e-05
0.000132876
0.000180765
0.000226436
0.000267483
0.000304125
0.000328121
0.000324075
0.000268523
0.000134266
-9.0009e-05
-0.000382582
-0.000699308
-0.000993923
-0.00122591
-0.00135341
-0.00131787
5.43414e-06
1.68365e-05
3.95449e-05
7.80018e-05
0.000129325
0.000181033
0.000229598
0.000278086
0.000319031
0.000333279
0.000300489
0.000203928
3.38372e-05
-0.000203344
-0.000478487
-0.000759998
-0.00101771
-0.00122285
-0.00134144
-0.00132548
6.38691e-06
1.79412e-05
3.87802e-05
7.24735e-05
0.000123422
0.000180963
0.000234158
0.000278182
0.000302109
0.000291768
0.000236173
0.000126131
-3.90018e-05
-0.000249019
-0.000489621
-0.000737542
-0.000966164
-0.00114941
-0.00125516
-0.00123995
6.98618e-06
1.88852e-05
4.27626e-05
7.11073e-05
0.000110181
0.000167625
0.000226445
0.000266609
0.000276533
0.000247626
0.000177494
6.59333e-05
-8.76026e-05
-0.000279055
-0.000495478
-0.00071749
-0.00092416
-0.00109191
-0.0011913
-0.00118214
7.64045e-06
1.81577e-05
4.11995e-05
7.11365e-05
0.000103762
0.000149008
0.000201781
0.000239615
0.000242898
0.000204181
0.000125058
1.08442e-05
-0.000136319
-0.00031274
-0.00050607
-0.000698375
-0.000872158
-0.00100964
-0.00108817
-0.00107544
7.44886e-06
1.76646e-05
3.7969e-05
6.7288e-05
9.85558e-05
0.000130861
0.00016569
0.000193637
0.000196963
0.000159123
7.86154e-05
-3.67659e-05
-0.000179049
-0.000340624
-0.000509196
-0.000669286
-0.00080693
-0.000910152
-0.000963995
-0.000945852
5.94621e-06
1.5857e-05
3.38676e-05
5.90821e-05
8.70501e-05
0.000111517
0.000130297
0.000141284
0.000137271
0.000105071
3.3734e-05
-7.34701e-05
-0.000205814
-0.000351287
-0.000498066
-0.000632955
-0.000743313
-0.000819808
-0.000853272
-0.000829424
3.2657e-06
1.22799e-05
2.82364e-05
4.79146e-05
6.86085e-05
8.66205e-05
9.56591e-05
9.20707e-05
7.57774e-05
4.32285e-05
-1.37259e-05
-0.000100843
-0.000214422
-0.000343908
-0.000475511
-0.000594453
-0.000687469
-0.000745535
-0.000762505
-0.000731416
-7.53172e-07
6.65303e-06
1.92746e-05
3.38674e-05
4.68275e-05
5.62048e-05
5.83481e-05
4.69196e-05
2.1179e-05
-1.49609e-05
-6.34505e-05
-0.000131005
-0.000221313
-0.000329574
-0.00044459
-0.000550674
-0.000633464
-0.000682738
-0.000691893
-0.000657237
-6.83019e-06
-1.21585e-06
7.20575e-06
1.65293e-05
2.27853e-05
2.39957e-05
1.88295e-05
3.14314e-06
-2.57389e-05
-6.4683e-05
-0.000109975
-0.000164708
-0.000233438
-0.00031714
-0.000409287
-0.000499297
-0.000574355
-0.000622646
-0.000636039
-0.000608642
-1.52279e-05
-1.16922e-05
-7.40117e-06
-3.82123e-06
-3.49252e-06
-8.74375e-06
-1.98057e-05
-3.88579e-05
-6.82649e-05
-0.000106083
-0.000148947
-0.000195724
-0.000249658
-0.000312256
-0.00038168
-0.000451608
-0.000514028
-0.00056057
-0.000582256
-0.000571219
-2.62176e-05
-2.47808e-05
-2.4362e-05
-2.62191e-05
-3.1314e-05
-4.14005e-05
-5.68967e-05
-7.80579e-05
-0.000106843
-0.000142172
-0.000180752
-0.000221352
-0.000265143
-0.000313855
-0.00036562
-0.000416928
-0.000464124
-0.000502983
-0.000528434
-0.000532451
-3.97094e-05
-4.04781e-05
-4.34201e-05
-4.95237e-05
-5.96417e-05
-7.34869e-05
-9.14289e-05
-0.000113872
-0.000141594
-0.000174021
-0.000208253
-0.000242665
-0.000278695
-0.000317554
-0.000358222
-0.00039718
-0.00043143
-0.000460098
-0.000481614
-0.000492039
-5.55203e-05
-5.81704e-05
-6.42346e-05
-7.34697e-05
-8.69574e-05
-0.000104065
-0.000123741
-0.000146228
-0.000172488
-0.000202006
-0.000232488
-0.000262007
-0.000291282
-0.000322501
-0.000355614
-0.000387542
-0.000414429
-0.000434712
-0.000449342
-0.000458291
-7.32698e-05
-7.73591e-05
-8.58402e-05
-9.76286e-05
-0.000113216
-0.000132281
-0.000153298
-0.000175463
-0.000199761
-0.000226585
-0.000254049
-0.0002801
-0.000304658
-0.000329639
-0.000356213
-0.000382778
-0.000405843
-0.000422613
-0.000432898
-0.000438288
-9.22061e-05
-9.7343e-05
-0.000107504
-0.000121156
-0.000138039
-0.000157935
-0.000179601
-0.00020167
-0.000224261
-0.000248335
-0.000273165
-0.000296751
-0.000318247
-0.000338771
-0.000359929
-0.00038162
-0.000401581
-0.000417042
-0.00042666
-0.000431131
-0.000111401
-0.000117215
-0.00012839
-0.00014329
-0.00016098
-0.000181126
-0.000202774
-0.000224601
-0.000246097
-0.000267897
-0.000290161
-0.000311731
-0.000331415
-0.000349402
-0.000366867
-0.000384451
-0.000401303
-0.00041552
-0.000425539
-0.000431178
-0.000129671
-0.000135916
-0.000147575
-0.000163118
-0.000181228
-0.000201292
-0.000222648
-0.000244215
-0.000265123
-0.000285452
-0.00030561
-0.000325246
-0.000343493
-0.000360034
-0.000375475
-0.000390605
-0.000405454
-0.000419072
-0.000430145
-0.000437852
-0.000145928
-0.000152223
-0.000163848
-0.000179409
-0.000197558
-0.000217393
-0.000238278
-0.000259425
-0.000280006
-0.000299659
-0.000318512
-0.000336622
-0.000353649
-0.000369186
-0.000383255
-0.000396325
-0.000408843
-0.000420791
-0.00043164
-0.00044071
-0.000160194
-0.00016718
-0.000179349
-0.000195361
-0.000213954
-0.000234083
-0.000254986
-0.000276
-0.000296458
-0.000315866
-0.000334101
-0.000351241
-0.000367265
-0.000382009
-0.000395398
-0.000407605
-0.000418949
-0.000429653
-0.000439692
-0.000448851
-0.00104233
-0.000573119
-5.30107e-05
0.000384977
0.000689303
0.000843442
0.000854295
0.000753764
0.000587132
0.000397022
0.000211628
4.34764e-05
-0.000103827
-0.000226431
-0.00031505
-0.000359527
-0.000359293
-0.000329705
-0.000297871
-0.000289923
-0.0003165
-0.000366387
-0.000416174
-0.000448608
-0.000464948
-0.000482232
-0.000516575
-0.00056827
-0.00062226
-0.000660547
-0.00067642
-0.000679223
-0.000685978
-0.000708342
-0.0007437
-0.000777554
-0.000798493
-0.000811231
-0.000832024
-0.000869786
-0.000913957
-0.000945735
-0.000959216
-0.000965897
-0.000981494
-0.00101138
-0.00104635
-0.001073
-0.00108963
-0.00110848
-0.00113968
-0.00117562
-0.0011994
-0.00120941
-0.00122378
-0.00125583
-0.00129633
-0.00132761
-0.00134757
-0.00137006
-0.00140206
-0.00143299
-0.00145387
-0.00147371
-0.0015032
-0.00153538
-0.00155854
-0.00157616
-0.0015983
-0.00162539
-0.00165307
-0.00168193
-0.00171313
-0.00174392
-0.00177267
-0.00180136
-0.00183145
-0.00186194
-0.00189114
-0.00191827
-0.00194508
-0.00197504
-0.00200883
-0.00204268
-0.00207352
-0.00210288
-0.00213366
-0.00216572
-0.00219737
-0.00222859
-0.00226066
-0.00229397
-0.00232766
-0.00236102
-0.00239423
-0.00242799
-0.00246277
-0.00249831
-0.00253392
-0.00256919
-0.00260469
-0.0026415
-0.00267995
-0.00271904
-0.00275738
-0.00279485
-0.00283307
-0.00287415
-0.00291852
-0.0029643
-0.00300874
-0.00305062
-0.00309159
-0.00313573
-0.00318699
-0.00324661
-0.00331221
-0.00337853
-0.00343915
-0.00348883
-0.00352527
-0.00354852
-0.0035598
-0.00356916
-0.00357558
-0.00358216
-0.00359247
-0.00360585
-0.00362264
-0.00364251
-0.00366488
-0.00368922
-0.00371503
-0.00374195
-0.00376973
-0.00379819
-0.00382722
-0.00385675
-0.00388672
-0.0039171
-0.00394785
-0.00397896
-0.00401041
-0.0040422
-0.00407433
-0.00410677
-0.00413952
-0.00417258
-0.00420593
-0.00423959
-0.00427352
-0.00430775
-0.00434226
-0.00437706
-0.00441212
-0.00444749
-0.00448311
-0.00451904
-0.0045552
-0.00459171
-0.00462841
-0.00466549
-0.00470274
-0.00474041
-0.0047782
-0.00481645
-0.0048548
-0.00489362
-0.00493256
-0.00497194
-0.00501149
-0.00505141
-0.00509163
-0.00513204
-0.00517297
-0.00521386
-0.0052555
-0.00529693
-0.00533922
-0.00538129
-0.00542411
-0.00546697
-0.00551021
-0.00555394
-0.00559762
-0.00564212
-0.0056864
-0.00573148
-0.00577662
-0.00582211
-0.00586816
-0.00591413
-0.00596094
-0.00600771
-0.00605497
-0.0061027
-0.00615042
-0.00619899
-0.00624744
-0.00629657
-0.00634597
-0.00639557
-0.00644589
-0.00649613
-0.00654715
-0.00659828
-0.00664973
-0.00670191
-0.00675379
-0.00680662
-0.00685929
-0.00691217
-0.00696534
-0.00701809
-0.00707047
-0.00712223
-0.00717226
-0.00722058
-0.00726551
-0.00730642
-0.00110701
-0.000695353
-0.000204917
0.00023008
0.000544932
0.000718613
0.000756328
0.000685905
0.000547701
0.000380597
0.000211282
5.21182e-05
-9.27101e-05
-0.000217782
-0.000312126
-0.000363865
-0.000370063
-0.000344015
-0.000312415
-0.000302449
-0.000326325
-0.000373655
-0.000420838
-0.000450551
-0.000464934
-0.000482149
-0.000518262
-0.000572069
-0.000627054
-0.000665127
-0.000680438
-0.000683003
-0.000689537
-0.000711021
-0.000745286
-0.000779036
-0.000800914
-0.00081426
-0.000834409
-0.000871185
-0.000915487
-0.000948302
-0.000962139
-0.000967961
-0.000982696
-0.00101274
-0.0010484
-0.0010754
-0.00109177
-0.00110997
-0.00114079
-0.00117737
-0.00120215
-0.00121193
-0.00122497
-0.00125645
-0.0012977
-0.00132955
-0.00134893
-0.00137062
-0.00140281
-0.00143444
-0.00145521
-0.00147427
-0.00150374
-0.00153681
-0.00156044
-0.00157772
-0.00159968
-0.00162698
-0.00165465
-0.00168325
-0.00171443
-0.00174532
-0.00177392
-0.00180235
-0.00183235
-0.00186296
-0.00189229
-0.00191943
-0.00194607
-0.00197591
-0.00200985
-0.00204389
-0.00207461
-0.00210369
-0.00213436
-0.00216658
-0.00219837
-0.00222957
-0.00226156
-0.00229486
-0.00232859
-0.00236195
-0.0023951
-0.00242878
-0.00246354
-0.00249915
-0.00253479
-0.00257001
-0.00260539
-0.00264212
-0.00268058
-0.00271971
-0.00275804
-0.00279541
-0.00283349
-0.0028744
-0.00291867
-0.00296439
-0.00300874
-0.00305045
-0.00309121
-0.00313497
-0.00318568
-0.0032446
-0.00330929
-0.0033745
-0.00343414
-0.00348335
-0.00351964
-0.0035431
-0.00355712
-0.00356717
-0.00357367
-0.00358201
-0.0035925
-0.00360655
-0.00362378
-0.00364383
-0.00366622
-0.00369044
-0.00371607
-0.00374279
-0.00377038
-0.00379867
-0.00382757
-0.003857
-0.00388689
-0.00391721
-0.00394792
-0.003979
-0.00401044
-0.0040422
-0.00407433
-0.00410677
-0.00413952
-0.00417258
-0.00420593
-0.00423958
-0.00427352
-0.00430775
-0.00434225
-0.00437706
-0.00441212
-0.00444749
-0.0044831
-0.00451904
-0.0045552
-0.00459171
-0.00462841
-0.0046655
-0.00470274
-0.00474041
-0.00477819
-0.00481645
-0.00485479
-0.00489363
-0.00493255
-0.00497194
-0.00501149
-0.00505141
-0.00509163
-0.00513203
-0.00517298
-0.00521386
-0.00525551
-0.00529692
-0.00533922
-0.00538129
-0.00542411
-0.00546696
-0.00551021
-0.00555394
-0.00559762
-0.00564211
-0.0056864
-0.00573149
-0.00577661
-0.00582211
-0.00586816
-0.00591409
-0.00596094
-0.00600771
-0.00605498
-0.0061027
-0.0061504
-0.00619899
-0.00624744
-0.00629657
-0.00634596
-0.00639557
-0.0064459
-0.00649612
-0.00654716
-0.00659827
-0.00664974
-0.0067019
-0.00675379
-0.00680662
-0.00685931
-0.00691216
-0.0069654
-0.00701806
-0.00707054
-0.0071222
-0.00717234
-0.00722058
-0.00726579
-0.00730724
-0.00104635
-0.000681426
-0.000240673
0.000157104
0.000449986
0.000616716
0.000662611
0.000612737
0.000501902
0.00036246
0.000216153
7.31218e-05
-6.31102e-05
-0.000187288
-0.0002876
-0.000349785
-0.000367125
-0.000349368
-0.000321752
-0.000312203
-0.0003346
-0.000379614
-0.000423148
-0.000447572
-0.000457104
-0.000472785
-0.000511259
-0.000569125
-0.000626957
-0.000665578
-0.000680441
-0.000683142
-0.000690121
-0.00071099
-0.000743722
-0.000776768
-0.000799389
-0.000813508
-0.000833328
-0.000869415
-0.00091396
-0.000947817
-0.00096204
-0.000966955
-0.000980726
-0.00101099
-0.00104759
-0.0010751
-0.00109118
-0.00110887
-0.00113997
-0.00117807
-0.00120434
-0.00121386
-0.00122546
-0.00125643
-0.00129856
-0.00133079
-0.00134892
-0.00136912
-0.00140118
-0.00143315
-0.00145304
-0.00147083
-0.00150073
-0.00153558
-0.0015604
-0.00157812
-0.00160094
-0.00162941
-0.00165753
-0.0016859
-0.00171667
-0.00174683
-0.00177416
-0.00180129
-0.00183081
-0.00186203
-0.00189263
-0.00192087
-0.0019479
-0.00197743
-0.00201065
-0.00204384
-0.00207399
-0.00210315
-0.0021344
-0.00216709
-0.00219899
-0.00223019
-0.00226225
-0.00229547
-0.0023289
-0.00236212
-0.00239557
-0.00242969
-0.0024644
-0.00249945
-0.00253469
-0.00257023
-0.00260636
-0.00264333
-0.00268104
-0.00271904
-0.00275705
-0.00279537
-0.00283483
-0.00287608
-0.00291887
-0.00296208
-0.00300475
-0.00304696
-0.00309004
-0.00313617
-0.00318697
-0.00324229
-0.00330006
-0.0033568
-0.00340854
-0.00345219
-0.00348667
-0.00351384
-0.00353634
-0.00354957
-0.00356131
-0.00357314
-0.00358682
-0.00360289
-0.00362139
-0.00364218
-0.003665
-0.00368948
-0.00371528
-0.00374213
-0.00376984
-0.00379824
-0.00382723
-0.00385673
-0.00388669
-0.00391706
-0.00394782
-0.00397893
-0.00401039
-0.00404216
-0.00407431
-0.00410675
-0.00413951
-0.00417257
-0.00420592
-0.00423957
-0.00427351
-0.00430774
-0.00434225
-0.00437705
-0.00441212
-0.00444748
-0.0044831
-0.00451904
-0.0045552
-0.00459171
-0.00462841
-0.00466549
-0.00470274
-0.00474041
-0.0047782
-0.00481645
-0.00485479
-0.00489363
-0.00493255
-0.00497194
-0.00501149
-0.00505141
-0.00509162
-0.00513205
-0.00517296
-0.00521387
-0.00525549
-0.00529694
-0.00533922
-0.00538128
-0.00542412
-0.00546694
-0.00551024
-0.0055539
-0.00559767
-0.00564209
-0.00568642
-0.00573149
-0.00577659
-0.00582215
-0.00586812
-0.00591422
-0.00596092
-0.00600771
-0.006055
-0.00610266
-0.00615049
-0.00619896
-0.00624744
-0.00629659
-0.00634593
-0.00639561
-0.00644588
-0.00649611
-0.00654719
-0.00659823
-0.00664978
-0.00670187
-0.00675381
-0.00680664
-0.00685929
-0.00691219
-0.00696542
-0.00701804
-0.00707061
-0.00712221
-0.00717237
-0.00722069
-0.00726607
-0.00730781
-0.00101297
-0.00069076
-0.00029935
5.65734e-05
0.000321059
0.000474529
0.000522614
0.000488637
0.000403298
0.000293317
0.000174856
5.42547e-05
-6.64021e-05
-0.000181847
-0.000280077
-0.000346008
-0.000370735
-0.000361006
-0.000339724
-0.000333979
-0.000358075
-0.000403305
-0.000444803
-0.00046362
-0.000465157
-0.000474326
-0.000510937
-0.000571324
-0.000632811
-0.00067315
-0.00068787
-0.000690793
-0.000699004
-0.000720346
-0.000751587
-0.000782239
-0.000803162
-0.000816694
-0.000836711
-0.000873374
-0.000918385
-0.000952475
-0.000966951
-0.000971991
-0.00098541
-0.00101517
-0.0010516
-0.00107911
-0.00109503
-0.00111251
-0.00114382
-0.00118273
-0.00120964
-0.00121864
-0.0012288
-0.0012587
-0.00130077
-0.00133343
-0.00135146
-0.00137101
-0.00140289
-0.00143531
-0.00145518
-0.00147238
-0.00150253
-0.00153875
-0.00156458
-0.00158216
-0.00160453
-0.00163282
-0.00166078
-0.00168887
-0.00171941
-0.0017493
-0.00177624
-0.00180322
-0.00183303
-0.00186471
-0.00189548
-0.00192345
-0.00194997
-0.00197917
-0.00201242
-0.00204578
-0.00207593
-0.002105
-0.00213624
-0.00216903
-0.00220097
-0.00223207
-0.002264
-0.00229719
-0.0023307
-0.002364
-0.00239739
-0.00243127
-0.00246582
-0.00250096
-0.00253643
-0.002572
-0.00260777
-0.00264423
-0.00268175
-0.0027201
-0.00275863
-0.00279703
-0.00283578
-0.00287578
-0.00291761
-0.00296094
-0.00300464
-0.00304785
-0.00309097
-0.00313551
-0.00318307
-0.00323444
-0.00328885
-0.00334369
-0.00339561
-0.00344159
-0.0034793
-0.00350769
-0.00352933
-0.0035479
-0.00355793
-0.00357149
-0.00358659
-0.00360359
-0.00362261
-0.00364363
-0.00366646
-0.00369081
-0.00371642
-0.00374306
-0.00377055
-0.00379877
-0.00382761
-0.003857
-0.00388687
-0.00391718
-0.00394791
-0.00397896
-0.00401041
-0.0040422
-0.00407429
-0.00410673
-0.00413948
-0.00417254
-0.0042059
-0.00423956
-0.0042735
-0.00430773
-0.00434224
-0.00437704
-0.00441211
-0.00444748
-0.00448309
-0.00451903
-0.00455519
-0.0045917
-0.00462841
-0.00466549
-0.00470273
-0.0047404
-0.00477819
-0.00481645
-0.00485479
-0.00489363
-0.00493255
-0.00497194
-0.00501149
-0.00505141
-0.00509162
-0.00513204
-0.00517296
-0.00521387
-0.00525549
-0.00529693
-0.00533922
-0.00538128
-0.00542413
-0.00546693
-0.00551025
-0.00555389
-0.00559764
-0.00564208
-0.00568642
-0.00573149
-0.00577658
-0.00582217
-0.00586811
-0.00591422
-0.00596092
-0.0060077
-0.00605502
-0.00610265
-0.0061505
-0.00619895
-0.00624745
-0.0062966
-0.00634592
-0.00639561
-0.00644588
-0.0064961
-0.00654721
-0.00659821
-0.0066498
-0.00670186
-0.00675382
-0.00680665
-0.00685929
-0.00691221
-0.00696544
-0.00701805
-0.00707066
-0.00712225
-0.00717241
-0.00722082
-0.0072663
-0.00730831
-0.000929406
-0.000655596
-0.000322986
-1.94336e-05
0.000206981
0.000339461
0.000384045
0.000361848
0.000299137
0.000217248
0.000126933
3.03456e-05
-7.2289e-05
-0.000175773
-0.000267477
-0.000331739
-0.000358969
-0.000354533
-0.000339495
-0.000339406
-0.000368217
-0.000417548
-0.000461654
-0.000479207
-0.00047408
-0.000473597
-0.000503085
-0.000562304
-0.000627039
-0.000670649
-0.0006862
-0.000689438
-0.000699943
-0.000724608
-0.000757262
-0.000785868
-0.000802587
-0.000812698
-0.000832152
-0.000870711
-0.000917626
-0.000951958
-0.000966281
-0.000972254
-0.000986507
-0.00101547
-0.00105019
-0.0010767
-0.00109283
-0.00111093
-0.00114273
-0.00118254
-0.00121075
-0.00122016
-0.0012293
-0.00125782
-0.00129944
-0.00133285
-0.0013518
-0.00137117
-0.00140212
-0.00143424
-0.00145411
-0.00147044
-0.00149979
-0.00153696
-0.00156446
-0.00158242
-0.00160431
-0.0016328
-0.0016615
-0.00169003
-0.0017207
-0.00175038
-0.00177652
-0.00180256
-0.00183208
-0.00186406
-0.00189522
-0.00192356
-0.00195046
-0.00197981
-0.00201283
-0.00204577
-0.00207559
-0.00210455
-0.00213593
-0.00216894
-0.00220101
-0.00223219
-0.00226418
-0.00229735
-0.0023307
-0.00236386
-0.00239733
-0.00243149
-0.00246614
-0.00250099
-0.00253606
-0.00257157
-0.00260774
-0.0026446
-0.00268197
-0.00271954
-0.00275728
-0.00279558
-0.00283497
-0.0028757
-0.00291751
-0.00295962
-0.00300145
-0.00304321
-0.003086
-0.00313104
-0.00317901
-0.00322964
-0.00328126
-0.00333119
-0.00337688
-0.00341668
-0.00345017
-0.00347819
-0.00350159
-0.00352148
-0.00354126
-0.00355986
-0.00357815
-0.00359753
-0.00361819
-0.00364037
-0.003664
-0.00368891
-0.00371492
-0.00374186
-0.00376959
-0.00379799
-0.00382699
-0.00385651
-0.00388649
-0.00391687
-0.00394766
-0.00397877
-0.00401024
-0.00404209
-0.00407422
-0.00410667
-0.00413944
-0.0041725
-0.00420587
-0.00423953
-0.00427347
-0.00430771
-0.00434222
-0.00437702
-0.00441209
-0.00444746
-0.00448308
-0.00451902
-0.00455519
-0.00459169
-0.0046284
-0.00466549
-0.00470273
-0.0047404
-0.00477819
-0.00481645
-0.00485479
-0.00489363
-0.00493254
-0.00497195
-0.00501148
-0.00505142
-0.00509161
-0.00513206
-0.00517295
-0.00521388
-0.00525549
-0.00529693
-0.00533922
-0.00538127
-0.00542414
-0.00546691
-0.00551028
-0.00555385
-0.00559766
-0.00564207
-0.00568641
-0.00573151
-0.00577655
-0.0058222
-0.00586807
-0.00591424
-0.00596092
-0.00600768
-0.00605505
-0.0061026
-0.00615053
-0.00619895
-0.00624743
-0.00629663
-0.00634589
-0.00639563
-0.00644588
-0.00649608
-0.00654724
-0.00659818
-0.00664983
-0.00670186
-0.00675381
-0.00680669
-0.00685928
-0.00691224
-0.00696547
-0.00701806
-0.00707071
-0.0071223
-0.00717246
-0.00722096
-0.00726653
-0.00730873
-0.00082507
-0.000605269
-0.000338128
-9.25424e-05
9.17487e-05
0.000200325
0.000238788
0.000225821
0.000183419
0.000127732
6.43509e-05
-8.88705e-06
-9.39819e-05
-0.000185947
-0.000271031
-0.000332121
-0.000358819
-0.000355957
-0.000344019
-0.000347914
-0.000381255
-0.000435656
-0.000484837
-0.00050513
-0.000496898
-0.000487114
-0.000506486
-0.000560941
-0.000627185
-0.000674376
-0.000690894
-0.000692469
-0.000703149
-0.000732166
-0.000769989
-0.000799578
-0.000811821
-0.000815338
-0.000830792
-0.00087012
-0.000920494
-0.000956872
-0.00097084
-0.000976852
-0.000992585
-0.00102216
-0.00105544
-0.00108006
-0.00109542
-0.00111356
-0.00114568
-0.00118675
-0.00121703
-0.00122695
-0.00123388
-0.00125981
-0.00130083
-0.00133498
-0.0013543
-0.00137345
-0.0014044
-0.00143693
-0.00145676
-0.00147212
-0.00150089
-0.00153929
-0.00156882
-0.00158738
-0.00160839
-0.00163616
-0.00166475
-0.00169321
-0.0017239
-0.00175366
-0.00177941
-0.00180476
-0.00183424
-0.00186689
-0.00189848
-0.00192659
-0.00195299
-0.00198199
-0.00201493
-0.00204798
-0.00207788
-0.00210676
-0.00213805
-0.00217111
-0.00220328
-0.00223439
-0.00226623
-0.00229933
-0.00233276
-0.00236599
-0.0023994
-0.00243334
-0.00246777
-0.00250263
-0.00253791
-0.00257352
-0.00260943
-0.00264572
-0.00268264
-0.00272031
-0.00275857
-0.00279722
-0.00283623
-0.00287576
-0.00291612
-0.00295744
-0.00299965
-0.00304254
-0.00308606
-0.00313037
-0.00317574
-0.00322223
-0.00326936
-0.00331615
-0.00336136
-0.00340342
-0.00344082
-0.00347277
-0.0034991
-0.00351962
-0.00353896
-0.0035578
-0.0035774
-0.00359767
-0.00361882
-0.00364129
-0.00366504
-0.00368991
-0.00371581
-0.0037426
-0.00377016
-0.00379841
-0.00382728
-0.00385672
-0.00388666
-0.00391693
-0.00394771
-0.00397879
-0.00401022
-0.00404202
-0.00407415
-0.00410661
-0.00413938
-0.00417245
-0.00420582
-0.00423949
-0.00427343
-0.00430768
-0.00434219
-0.004377
-0.00441207
-0.00444745
-0.00448307
-0.00451901
-0.00455517
-0.00459169
-0.00462839
-0.00466548
-0.00470272
-0.0047404
-0.00477818
-0.00481644
-0.00485478
-0.00489362
-0.00493254
-0.00497195
-0.00501148
-0.00505142
-0.00509161
-0.00513204
-0.00517295
-0.00521387
-0.00525549
-0.00529693
-0.00533923
-0.00538126
-0.00542415
-0.0054669
-0.00551028
-0.00555384
-0.00559767
-0.00564207
-0.00568641
-0.00573152
-0.00577654
-0.00582222
-0.00586807
-0.00591424
-0.00596093
-0.00600767
-0.00605508
-0.00610258
-0.00615054
-0.00619894
-0.00624743
-0.00629665
-0.00634588
-0.00639564
-0.00644589
-0.00649607
-0.00654726
-0.00659816
-0.00664984
-0.00670187
-0.0067538
-0.00680672
-0.00685927
-0.00691227
-0.0069655
-0.00701808
-0.00707077
-0.00712236
-0.00717252
-0.0072211
-0.00726674
-0.00730908
-0.000727661
-0.000552462
-0.000343108
-0.000151975
-9.66672e-06
7.29302e-05
0.000101626
9.33487e-05
6.70594e-05
3.47594e-05
-2.84221e-06
-5.28644e-05
-0.000120929
-0.000202998
-0.000283647
-0.000342947
-0.000368446
-0.000364248
-0.000351033
-0.000354893
-0.000390351
-0.000449052
-0.000504008
-0.000529136
-0.00052069
-0.000503552
-0.000512167
-0.000559581
-0.000626107
-0.000677778
-0.000696396
-0.000694817
-0.000701741
-0.000732496
-0.00077697
-0.00081214
-0.000824041
-0.00082137
-0.000829368
-0.000865481
-0.000918711
-0.000959906
-0.000975201
-0.000979312
-0.000994152
-0.00102509
-0.00105949
-0.00108307
-0.0010959
-0.0011118
-0.00114331
-0.00118635
-0.00122032
-0.00123206
-0.00123662
-0.0012592
-0.00130018
-0.00133625
-0.00135557
-0.00137338
-0.00140492
-0.00143938
-0.001459
-0.00147183
-0.00149903
-0.00153836
-0.00156966
-0.00158897
-0.00160966
-0.0016369
-0.0016652
-0.00169365
-0.00172479
-0.00175535
-0.00178121
-0.0018055
-0.0018339
-0.0018667
-0.0018992
-0.00192768
-0.00195368
-0.00198233
-0.00201539
-0.00204866
-0.00207846
-0.00210702
-0.00213819
-0.00217139
-0.0022037
-0.00223481
-0.00226661
-0.00229968
-0.00233305
-0.00236618
-0.00239957
-0.00243362
-0.00246813
-0.00250284
-0.00253779
-0.00257316
-0.00260912
-0.00264567
-0.0026827
-0.00272001
-0.00275758
-0.00279558
-0.00283435
-0.00287413
-0.00291482
-0.00295602
-0.00299732
-0.00303866
-0.00308044
-0.00312333
-0.00316777
-0.00321357
-0.00325977
-0.0033048
-0.00334692
-0.0033848
-0.00341808
-0.00344727
-0.00347316
-0.00349681
-0.00352158
-0.00354246
-0.00356681
-0.00358946
-0.00361244
-0.00363634
-0.00366116
-0.00368685
-0.00371338
-0.00374065
-0.00376858
-0.0037971
-0.00382624
-0.00385583
-0.00388595
-0.00391635
-0.00394712
-0.0039784
-0.00400996
-0.00404183
-0.00407401
-0.00410649
-0.00413928
-0.00417237
-0.00420575
-0.00423943
-0.00427338
-0.00430763
-0.00434215
-0.00437697
-0.00441204
-0.00444742
-0.00448305
-0.00451899
-0.00455516
-0.00459167
-0.00462838
-0.00466547
-0.00470272
-0.00474039
-0.00477818
-0.00481644
-0.00485478
-0.00489362
-0.00493254
-0.00497195
-0.00501147
-0.00505142
-0.0050916
-0.00513206
-0.00517294
-0.00521387
-0.00525549
-0.00529692
-0.00533924
-0.00538125
-0.00542417
-0.00546688
-0.0055103
-0.00555383
-0.00559767
-0.00564207
-0.00568639
-0.00573154
-0.00577651
-0.00582224
-0.00586805
-0.00591424
-0.00596094
-0.00600764
-0.00605511
-0.00610256
-0.00615055
-0.00619895
-0.0062474
-0.00629667
-0.00634586
-0.00639565
-0.0064459
-0.00649605
-0.00654729
-0.00659815
-0.00664985
-0.0067019
-0.00675379
-0.00680676
-0.00685927
-0.0069123
-0.00696555
-0.0070181
-0.00707083
-0.00712243
-0.00717259
-0.00722124
-0.00726693
-0.00730938
-0.000641503
-0.000499675
-0.000337251
-0.000193623
-9.08723e-05
-3.55268e-05
-2.06549e-05
-3.01149e-05
-4.63083e-05
-5.97664e-05
-7.38029e-05
-0.000100367
-0.0001504
-0.000222858
-0.00030127
-0.000361917
-0.000388149
-0.000381908
-0.000364104
-0.00036317
-0.000396639
-0.000457729
-0.000518966
-0.000551314
-0.000545993
-0.000524334
-0.000522747
-0.000561165
-0.000625997
-0.000682735
-0.00070617
-0.000702799
-0.000703019
-0.000730132
-0.000778611
-0.000821605
-0.000838244
-0.00083356
-0.000833543
-0.000861634
-0.00091398
-0.000961299
-0.000981904
-0.000984714
-0.00099517
-0.00102563
-0.00106385
-0.00109026
-0.00110162
-0.00111326
-0.00114162
-0.00118565
-0.0012243
-0.00123973
-0.00124271
-0.00126049
-0.00129972
-0.00133825
-0.00135862
-0.00137354
-0.00140366
-0.00144142
-0.00146379
-0.00147434
-0.00149828
-0.00153825
-0.00157219
-0.00159258
-0.00161311
-0.00164023
-0.00166799
-0.00169541
-0.00172626
-0.00175771
-0.00178443
-0.0018083
-0.00183541
-0.00186767
-0.00190114
-0.00193073
-0.00195642
-0.00198388
-0.00201656
-0.00205046
-0.00208065
-0.00210887
-0.00213963
-0.00217294
-0.00220552
-0.00223663
-0.00226823
-0.00230123
-0.00233465
-0.00236782
-0.00240112
-0.00243499
-0.00246935
-0.00250403
-0.00253907
-0.00257452
-0.0026103
-0.00264642
-0.00268295
-0.00272005
-0.0027578
-0.00279607
-0.00283477
-0.00287385
-0.0029133
-0.00295326
-0.00299391
-0.00303533
-0.00307751
-0.00312027
-0.00316339
-0.00320651
-0.00324915
-0.00329093
-0.00333141
-0.00337006
-0.0034063
-0.0034396
-0.00346968
-0.00349687
-0.00352231
-0.00354675
-0.00356694
-0.00358941
-0.00361252
-0.00363671
-0.00366168
-0.0036874
-0.00371389
-0.00374111
-0.00376896
-0.00379734
-0.00382643
-0.00385595
-0.00388605
-0.0039165
-0.00394723
-0.00397835
-0.00400984
-0.00404169
-0.00407387
-0.00410636
-0.00413916
-0.00417226
-0.00420566
-0.00423935
-0.00427331
-0.00430757
-0.0043421
-0.00437692
-0.00441201
-0.00444739
-0.00448302
-0.00451897
-0.00455514
-0.00459165
-0.00462836
-0.00466546
-0.0047027
-0.00474038
-0.00477817
-0.00481643
-0.00485477
-0.00489362
-0.00493253
-0.00497194
-0.00501147
-0.00505142
-0.0050916
-0.00513205
-0.00517294
-0.00521387
-0.00525549
-0.00529692
-0.00533924
-0.00538124
-0.00542417
-0.00546688
-0.0055103
-0.00555383
-0.00559767
-0.00564208
-0.00568638
-0.00573156
-0.0057765
-0.00582225
-0.00586805
-0.00591423
-0.00596096
-0.00600762
-0.00605513
-0.00610255
-0.00615055
-0.00619897
-0.00624738
-0.0062967
-0.00634584
-0.00639565
-0.00644592
-0.00649603
-0.00654731
-0.00659815
-0.00664985
-0.00670192
-0.00675378
-0.00680679
-0.00685929
-0.00691233
-0.0069656
-0.00701812
-0.0070709
-0.00712251
-0.00717267
-0.00722137
-0.00726711
-0.00730963
-0.000575755
-0.000457119
-0.000327901
-0.000219567
-0.000148835
-0.000118895
-0.000120902
-0.000138018
-0.000152361
-0.000154457
-0.000149392
-0.000153423
-0.000183243
-0.000243168
-0.000318751
-0.00038357
-0.000415095
-0.000409949
-0.000387549
-0.000378104
-0.000403789
-0.000462654
-0.000528792
-0.000570306
-0.000572315
-0.000550241
-0.000539596
-0.000566493
-0.000626021
-0.000686554
-0.000717133
-0.000715897
-0.000710136
-0.000729058
-0.000775659
-0.000825067
-0.000850898
-0.000850223
-0.000844878
-0.00086239
-0.000908993
-0.000960731
-0.000989609
-0.000994424
-0.000999378
-0.00102513
-0.00106552
-0.00109747
-0.00111063
-0.00111809
-0.00114021
-0.00118181
-0.00122425
-0.00124567
-0.00125001
-0.00126326
-0.00129855
-0.00133929
-0.00136372
-0.00137697
-0.00140236
-0.00144154
-0.00146987
-0.00148069
-0.00149904
-0.00153687
-0.00157367
-0.00159574
-0.00161564
-0.00164294
-0.00167107
-0.00169729
-0.00172701
-0.00175916
-0.0017874
-0.00181179
-0.00183772
-0.00186825
-0.00190157
-0.00193281
-0.00195941
-0.00198567
-0.00201708
-0.00205147
-0.00208271
-0.00211078
-0.00214074
-0.00217387
-0.00220681
-0.00223803
-0.00226939
-0.00230221
-0.00233564
-0.00236881
-0.00240204
-0.00243587
-0.0024702
-0.00250474
-0.00253952
-0.0025747
-0.00261037
-0.00264654
-0.00268313
-0.00272006
-0.00275728
-0.00279485
-0.00283292
-0.00287167
-0.00291111
-0.0029511
-0.00299141
-0.00303184
-0.00307236
-0.00311323
-0.00315464
-0.00319648
-0.00323842
-0.00327966
-0.00331911
-0.00335591
-0.00338968
-0.00342042
-0.00344879
-0.00347585
-0.00350207
-0.00352757
-0.00355291
-0.00357807
-0.00360406
-0.00362989
-0.0036563
-0.00368308
-0.00371038
-0.00373824
-0.00376656
-0.00379498
-0.00382472
-0.00385465
-0.00388475
-0.00391543
-0.00394646
-0.0039778
-0.00400944
-0.00404138
-0.00407362
-0.00410616
-0.00413899
-0.00417212
-0.00420554
-0.00423924
-0.00427322
-0.0043075
-0.00434204
-0.00437687
-0.00441196
-0.00444735
-0.00448298
-0.00451894
-0.00455511
-0.00459163
-0.00462835
-0.00466544
-0.00470269
-0.00474037
-0.00477816
-0.00481642
-0.00485476
-0.00489361
-0.00493252
-0.00497194
-0.00501146
-0.00505141
-0.0050916
-0.00513205
-0.00517294
-0.00521387
-0.0052555
-0.00529691
-0.00533925
-0.00538123
-0.00542418
-0.00546687
-0.0055103
-0.00555384
-0.00559766
-0.00564209
-0.00568636
-0.00573157
-0.00577649
-0.00582226
-0.00586805
-0.00591422
-0.00596098
-0.0060076
-0.00605514
-0.00610254
-0.00615054
-0.00619898
-0.00624736
-0.00629672
-0.00634584
-0.00639565
-0.00644593
-0.00649602
-0.00654733
-0.00659816
-0.00664985
-0.00670195
-0.00675378
-0.00680683
-0.00685932
-0.00691235
-0.00696566
-0.00701816
-0.00707097
-0.0071226
-0.00717275
-0.0072215
-0.00726728
-0.00730985
-0.000538195
-0.000436095
-0.000326946
-0.000238441
-0.000186629
-0.00017459
-0.000192719
-0.000222334
-0.000243795
-0.000245057
-0.000229601
-0.000215063
-0.000223024
-0.000265147
-0.000332894
-0.00040112
-0.000442421