/*--------------------------------*- C++ -*----------------------------------*\
| =========                 |                                                 |
| \\      /  F ield         | OpenFOAM: The Open Source CFD Toolbox           |
|  \\    /   O peration     | Version:  v1906                                 |
|   \\  /    A nd           | Web:      www.OpenFOAM.com                      |
|    \\/     M anipulation  |                                                 |
\*---------------------------------------------------------------------------*/
FoamFile
{
    version     2.0;
    format      ascii;
    class       surfaceScalarField;
    location    "0.4";
    object      phi;
}
// * * * * * * * * * * * * * * * * * * * * * * * * * * * * * * * * * * * * * //

dimensions      [0 3 -1 0 0 0 0];
oriented        oriented;


internalField   nonuniform List<scalar> 
9340
(
1.99008e-05
-2.47278e-10
1.99013e-05
-2.48946e-09
1.99011e-05
-1.33901e-09
1.9901e-05
1.87482e-10
1.99003e-05
1.83531e-09
1.98998e-05
1.57246e-09
1.98995e-05
1.42989e-09
1.98996e-05
4.6649e-10
1.98993e-05
8.01856e-11
1.98986e-05
-1.41661e-10
1.98964e-05
1.25544e-09
1.98925e-05
4.56897e-09
1.98866e-05
8.75362e-09
1.98796e-05
1.22429e-08
1.98726e-05
1.43045e-08
1.98664e-05
1.4478e-08
1.98615e-05
1.35874e-08
1.98582e-05
1.19938e-08
1.98559e-05
1.04926e-08
9.30464e-09
1.98537e-05
2.16597e-05
-1.35454e-10
2.16586e-05
-1.44219e-09
2.16586e-05
-1.31598e-09
2.16594e-05
-5.98289e-10
2.16597e-05
1.50279e-09
2.1659e-05
2.32744e-09
2.16581e-05
2.29485e-09
2.16568e-05
1.79833e-09
2.16544e-05
2.47869e-09
2.16502e-05
4.08301e-09
2.1644e-05
7.39083e-09
2.16376e-05
1.09714e-08
2.16326e-05
1.37996e-08
2.16293e-05
1.55308e-08
2.16274e-05
1.61707e-08
2.16265e-05
1.54134e-08
2.16262e-05
1.3836e-08
2.16265e-05
1.17134e-08
2.16274e-05
9.59368e-09
7.66031e-09
2.16291e-05
2.35744e-05
-7.50869e-12
2.35735e-05
-5.61521e-10
2.35727e-05
-5.2448e-10
2.35733e-05
-1.20616e-09
2.35742e-05
5.72784e-10
2.35734e-05
3.12321e-09
2.35718e-05
3.94838e-09
2.35691e-05
4.49952e-09
2.35655e-05
6.09308e-09
2.3561e-05
8.53004e-09
2.35567e-05
1.16693e-08
2.35535e-05
1.41699e-08
2.35511e-05
1.6207e-08
2.35496e-05
1.70294e-08
2.35491e-05
1.66795e-08
2.35492e-05
1.53817e-08
2.35492e-05
1.37915e-08
2.35495e-05
1.14631e-08
2.35499e-05
9.14544e-09
7.06175e-09
2.35505e-05
2.56583e-05
1.67404e-10
2.56581e-05
-3.89242e-10
2.56574e-05
1.82516e-10
2.56563e-05
-6.67117e-11
2.56564e-05
4.34472e-10
2.56566e-05
2.93439e-09
2.56547e-05
5.78326e-09
2.56515e-05
7.70347e-09
2.56478e-05
9.84072e-09
2.56443e-05
1.20256e-08
2.56416e-05
1.43688e-08
2.56393e-05
1.64582e-08
2.56376e-05
1.79458e-08
2.56363e-05
1.82808e-08
2.56354e-05
1.76362e-08
2.56348e-05
1.59862e-08
2.56349e-05
1.36186e-08
2.56357e-05
1.06714e-08
2.56368e-05
8.11037e-09
5.88698e-09
2.56379e-05
2.79265e-05
2.3518e-10
2.79262e-05
-2.77715e-11
2.79258e-05
5.26321e-10
2.79244e-05
1.37305e-09
2.79231e-05
1.71346e-09
2.79229e-05
3.15526e-09
2.79219e-05
6.73335e-09
2.79193e-05
1.03737e-08
2.7916e-05
1.30817e-08
2.79131e-05
1.49956e-08
2.79108e-05
1.66038e-08
2.79092e-05
1.80505e-08
2.79084e-05
1.87881e-08
2.79081e-05
1.8581e-08
2.79082e-05
1.74925e-08
2.7909e-05
1.52727e-08
2.79097e-05
1.28648e-08
2.79102e-05
1.02201e-08
2.79106e-05
7.63537e-09
5.3347e-09
2.79112e-05
3.03952e-05
2.8182e-10
3.03947e-05
5.51722e-10
3.03942e-05
9.54259e-10
3.03934e-05
2.23884e-09
3.03916e-05
3.5137e-09
3.03899e-05
4.76707e-09
3.0389e-05
7.68958e-09
3.03878e-05
1.1525e-08
3.03857e-05
1.52521e-08
3.03834e-05
1.73003e-08
3.03816e-05
1.83435e-08
3.0381e-05
1.86816e-08
3.03812e-05
1.85925e-08
3.03822e-05
1.75602e-08
3.03836e-05
1.60684e-08
3.03847e-05
1.41637e-08
3.03856e-05
1.20155e-08
3.03861e-05
9.69423e-09
3.03863e-05
7.44573e-09
5.47404e-09
3.03862e-05
3.3082e-05
4.04953e-10
3.30816e-05
9.95901e-10
3.30808e-05
1.73331e-09
3.30801e-05
3.00618e-09
3.30785e-05
5.02164e-09
3.30764e-05
6.90992e-09
3.30749e-05
9.16883e-09
3.30742e-05
1.22082e-08
3.30738e-05
1.56544e-08
3.30729e-05
1.82863e-08
3.30721e-05
1.90573e-08
3.30721e-05
1.87344e-08
3.30729e-05
1.78012e-08
3.3074e-05
1.64143e-08
3.30753e-05
1.4823e-08
3.30762e-05
1.3198e-08
3.3077e-05
1.12566e-08
3.30774e-05
9.2413e-09
3.30776e-05
7.29688e-09
5.50911e-09
3.30776e-05
3.60064e-05
5.75518e-10
3.6006e-05
1.42621e-09
3.60051e-05
2.62111e-09
3.60041e-05
4.02723e-09
3.60029e-05
6.15417e-09
3.60013e-05
8.55775e-09
3.59997e-05
1.07857e-08
3.5999e-05
1.28765e-08
3.59993e-05
1.53717e-08
3.6e-05
1.76014e-08
3.60002e-05
1.88068e-08
3.60006e-05
1.83618e-08
3.60012e-05
1.72344e-08
3.6002e-05
1.55652e-08
3.6003e-05
1.37879e-08
3.60041e-05
1.20996e-08
3.60051e-05
1.02751e-08
3.60058e-05
8.54533e-09
3.60061e-05
6.97831e-09
5.55745e-09
3.60061e-05
3.91893e-05
7.58635e-10
3.91888e-05
1.93477e-09
3.9188e-05
3.42784e-09
3.91869e-05
5.13456e-09
3.91859e-05
7.16743e-09
3.9185e-05
9.48534e-09
3.91839e-05
1.18617e-08
3.91832e-05
1.35431e-08
3.91836e-05
1.50087e-08
3.91848e-05
1.64006e-08
3.91861e-05
1.74967e-08
3.91869e-05
1.75526e-08
3.91877e-05
1.64513e-08
3.91885e-05
1.47843e-08
3.91894e-05
1.28708e-08
3.91905e-05
1.09562e-08
3.91914e-05
9.38018e-09
3.91921e-05
7.90066e-09
3.91924e-05
6.62602e-09
5.57692e-09
3.91924e-05
4.26536e-05
9.29689e-10
4.26531e-05
2.48467e-09
4.26524e-05
4.14457e-09
4.26515e-05
6.04017e-09
4.26505e-05
8.07151e-09
4.265e-05
1.00842e-08
4.26497e-05
1.21573e-08
4.26495e-05
1.37468e-08
4.26497e-05
1.4728e-08
4.26508e-05
1.53451e-08
4.26525e-05
1.58157e-08
4.26541e-05
1.59321e-08
4.26552e-05
1.52967e-08
4.26561e-05
1.39233e-08
4.26568e-05
1.21689e-08
4.26574e-05
1.03654e-08
4.26581e-05
8.66289e-09
4.26587e-05
7.31679e-09
4.26591e-05
6.24953e-09
5.40025e-09
4.26593e-05
4.64241e-05
1.10346e-09
4.64237e-05
2.95782e-09
4.6423e-05
4.80047e-09
4.64224e-05
6.69137e-09
4.64218e-05
8.68022e-09
4.64214e-05
1.04038e-08
4.64216e-05
1.2016e-08
4.64219e-05
1.34231e-08
4.64225e-05
1.41231e-08
4.64234e-05
1.44252e-08
4.64249e-05
1.43617e-08
4.64267e-05
1.41424e-08
4.64283e-05
1.36996e-08
4.64294e-05
1.27763e-08
4.64301e-05
1.14815e-08
4.64306e-05
9.87898e-09
4.64309e-05
8.36944e-09
4.64312e-05
7.01246e-09
4.64315e-05
5.96312e-09
5.24418e-09
4.64316e-05
5.0528e-05
1.25961e-09
5.05276e-05
3.34445e-09
5.05271e-05
5.27916e-09
5.05267e-05
7.09726e-09
5.05265e-05
8.90579e-09
5.05265e-05
1.04353e-08
5.05268e-05
1.16551e-08
5.05276e-05
1.26913e-08
5.05284e-05
1.32515e-08
5.05295e-05
1.33449e-08
5.05308e-05
1.31284e-08
5.05322e-05
1.26662e-08
5.05338e-05
1.2101e-08
5.05352e-05
1.14128e-08
5.05362e-05
1.04611e-08
5.05367e-05
9.36242e-09
5.0537e-05
8.13818e-09
5.0537e-05
6.92271e-09
5.05371e-05
5.90141e-09
5.09589e-09
5.05373e-05
5.49947e-05
1.3715e-09
5.49944e-05
3.59182e-09
5.49942e-05
5.53409e-09
5.4994e-05
7.28375e-09
5.49941e-05
8.80628e-09
5.49944e-05
1.0134e-08
5.49949e-05
1.10955e-08
5.49958e-05
1.1774e-08
5.49969e-05
1.21468e-08
5.49982e-05
1.21359e-08
5.49994e-05
1.18677e-08
5.50007e-05
1.13867e-08
5.5002e-05
1.07618e-08
5.50033e-05
1.01354e-08
5.50044e-05
9.38765e-09
5.50052e-05
8.54944e-09
5.50056e-05
7.69163e-09
5.50058e-05
6.79391e-09
5.50058e-05
5.8644e-09
5.1026e-09
5.50058e-05
5.98562e-05
1.40863e-09
5.98561e-05
3.705e-09
5.9856e-05
5.55499e-09
5.98561e-05
7.18554e-09
5.98565e-05
8.46631e-09
5.98571e-05
9.52421e-09
5.98579e-05
1.02905e-08
5.98589e-05
1.07634e-08
5.98601e-05
1.09447e-08
5.98614e-05
1.08724e-08
5.98627e-05
1.05794e-08
5.98639e-05
1.01417e-08
5.98651e-05
9.59656e-09
5.98663e-05
8.95376e-09
5.98673e-05
8.35435e-09
5.98682e-05
7.67369e-09
5.98689e-05
7.00583e-09
5.98693e-05
6.3576e-09
5.98694e-05
5.7133e-09
5.01986e-09
5.98695e-05
6.51474e-05
1.37617e-09
6.51475e-05
3.63923e-09
6.51477e-05
5.34785e-09
6.51481e-05
6.8029e-09
6.51487e-05
7.89677e-09
6.51495e-05
8.72126e-09
6.51505e-05
9.28591e-09
6.51516e-05
9.61139e-09
6.51529e-05
9.70137e-09
6.51542e-05
9.55171e-09
6.51555e-05
9.27952e-09
6.51567e-05
8.90139e-09
6.51579e-05
8.43552e-09
6.5159e-05
7.89518e-09
6.516e-05
7.34029e-09
6.51608e-05
6.7999e-09
6.51616e-05
6.24635e-09
6.51622e-05
5.72857e-09
6.51627e-05
5.25109e-09
4.78564e-09
6.51629e-05
7.09064e-05
1.2768e-09
7.09067e-05
3.38894e-09
7.09071e-05
4.92396e-09
7.09077e-05
6.16751e-09
7.09086e-05
7.09341e-09
7.09095e-05
7.73733e-09
7.09107e-05
8.14151e-09
7.09119e-05
8.34134e-09
7.09133e-05
8.37985e-09
7.09146e-05
8.22584e-09
7.09159e-05
7.95179e-09
7.09172e-05
7.63008e-09
7.09184e-05
7.26702e-09
7.09194e-05
6.84929e-09
7.09203e-05
6.4067e-09
7.09212e-05
5.92869e-09
7.0922e-05
5.45662e-09
7.09227e-05
5.02104e-09
7.09233e-05
4.63174e-09
4.27624e-09
7.09238e-05
7.71745e-05
1.11824e-09
7.71749e-05
2.96655e-09
7.71756e-05
4.29333e-09
7.71764e-05
5.30242e-09
7.71774e-05
6.06904e-09
7.71786e-05
6.57753e-09
7.71799e-05
6.87439e-09
7.71812e-05
6.99106e-09
7.71826e-05
6.98842e-09
7.7184e-05
6.86002e-09
7.71853e-05
6.62601e-09
7.71866e-05
6.32963e-09
7.71879e-05
6.01176e-09
7.7189e-05
5.68555e-09
7.71901e-05
5.34838e-09
7.7191e-05
4.99688e-09
7.71918e-05
4.63994e-09
7.71926e-05
4.29583e-09
7.71932e-05
3.97825e-09
3.69124e-09
7.71938e-05
8.39966e-05
9.04264e-10
8.39972e-05
2.38459e-09
8.39981e-05
3.46603e-09
8.39991e-05
4.25576e-09
8.40003e-05
4.84961e-09
8.40017e-05
5.2458e-09
8.40031e-05
5.46433e-09
8.40045e-05
5.53651e-09
8.4006e-05
5.51872e-09
8.40074e-05
5.42858e-09
8.40088e-05
5.26619e-09
8.40101e-05
5.04543e-09
8.40113e-05
4.79579e-09
8.40124e-05
4.53797e-09
8.40135e-05
4.27308e-09
8.40145e-05
3.99799e-09
8.40154e-05
3.71635e-09
8.40163e-05
3.44067e-09
8.40171e-05
3.18405e-09
2.9545e-09
8.40178e-05
9.14218e-05
6.63704e-10
9.14225e-05
1.70826e-09
9.14235e-05
2.47822e-09
9.14247e-05
3.04015e-09
9.14261e-05
3.45656e-09
9.14276e-05
3.74177e-09
9.14292e-05
3.90558e-09
9.14307e-05
3.96306e-09
9.14323e-05
3.94913e-09
9.14338e-05
3.88788e-09
9.14353e-05
3.78418e-09
9.14367e-05
3.6414e-09
9.14381e-05
3.4725e-09
9.14393e-05
3.29412e-09
9.14405e-05
3.11455e-09
9.14415e-05
2.93317e-09
9.14425e-05
2.74767e-09
9.14434e-05
2.55987e-09
9.14442e-05
2.3765e-09
2.20513e-09
9.14449e-05
9.95035e-05
9.95043e-05
9.95055e-05
9.95069e-05
9.95085e-05
9.95102e-05
9.95119e-05
9.95136e-05
9.95153e-05
9.95169e-05
9.95185e-05
9.952e-05
9.95215e-05
9.95228e-05
9.95241e-05
9.95252e-05
9.95263e-05
9.95273e-05
9.95283e-05
9.95291e-05
1.98449e-05
8.80588e-09
1.98351e-05
9.74611e-09
1.9824e-05
1.11705e-08
1.98112e-05
1.27847e-08
1.97968e-05
1.4433e-08
1.97807e-05
1.60076e-08
1.97634e-05
1.73572e-08
1.9745e-05
1.83732e-08
1.9726e-05
1.90129e-08
1.97067e-05
1.93072e-08
1.96874e-05
1.93174e-08
1.96682e-05
1.91463e-08
1.9649e-05
1.92319e-08
1.96297e-05
1.92473e-08
1.96105e-05
1.92793e-08
1.95911e-05
1.9383e-08
1.95715e-05
1.9584e-08
1.95517e-05
1.98518e-08
1.95315e-05
2.01347e-08
1.95111e-05
2.03923e-08
1.94905e-05
2.06072e-08
1.94697e-05
2.0786e-08
1.94488e-05
2.09507e-08
1.94277e-05
2.11019e-08
1.94065e-05
2.12212e-08
1.93851e-05
2.13191e-08
1.93637e-05
2.14372e-08
1.93421e-05
2.16087e-08
1.93203e-05
2.18285e-08
1.92982e-05
2.20718e-08
1.92759e-05
2.23138e-08
1.92533e-05
2.25477e-08
1.92305e-05
2.27898e-08
1.92075e-05
2.30405e-08
1.91842e-05
2.32805e-08
1.91607e-05
2.35073e-08
1.9137e-05
2.37293e-08
1.9113e-05
2.39347e-08
1.9089e-05
2.40935e-08
1.90648e-05
2.41991e-08
1.90405e-05
2.42809e-08
1.90161e-05
2.43595e-08
1.89917e-05
2.44209e-08
1.89672e-05
2.44443e-08
1.89428e-05
2.44408e-08
1.89184e-05
2.44557e-08
1.88938e-05
2.45293e-08
1.88692e-05
2.46636e-08
1.88443e-05
2.4852e-08
1.88192e-05
2.51042e-08
1.87938e-05
2.54361e-08
1.87679e-05
2.58744e-08
1.87415e-05
2.6429e-08
1.87144e-05
2.70349e-08
1.86868e-05
2.7602e-08
1.86587e-05
2.81052e-08
1.86302e-05
2.8552e-08
1.86013e-05
2.89044e-08
1.85722e-05
2.90776e-08
1.85432e-05
2.9017e-08
1.85144e-05
2.87657e-08
1.8486e-05
2.84163e-08
1.8458e-05
2.79956e-08
1.84305e-05
2.75033e-08
1.84034e-05
2.70634e-08
1.83766e-05
2.68641e-08
1.83496e-05
2.69613e-08
1.83223e-05
2.73038e-08
1.82944e-05
2.78995e-08
1.82656e-05
2.8761e-08
1.82359e-05
2.97552e-08
1.82052e-05
3.06775e-08
1.81738e-05
3.14112e-08
1.81419e-05
3.1904e-08
1.81098e-05
3.20957e-08
1.80778e-05
3.1987e-08
1.80461e-05
3.17161e-08
1.80146e-05
3.15106e-08
1.7983e-05
3.15701e-08
1.7951e-05
3.19645e-08
1.79185e-05
3.2595e-08
1.78852e-05
3.32379e-08
1.78515e-05
3.3665e-08
1.78178e-05
3.3776e-08
1.77841e-05
3.3672e-08
1.77505e-05
3.35878e-08
1.77168e-05
3.36855e-08
1.76829e-05
3.39344e-08
1.76487e-05
3.42157e-08
1.76142e-05
3.44898e-08
1.75794e-05
3.47909e-08
1.75443e-05
3.50936e-08
1.7509e-05
3.53123e-08
1.74735e-05
3.54473e-08
1.74379e-05
3.5629e-08
1.7402e-05
3.59512e-08
1.73656e-05
3.6327e-08
1.73291e-05
3.6581e-08
1.72924e-05
3.66762e-08
1.72556e-05
3.67873e-08
1.72185e-05
3.70998e-08
1.71809e-05
3.75659e-08
1.7143e-05
3.79175e-08
1.7105e-05
3.79585e-08
1.70672e-05
3.78156e-08
1.70294e-05
3.78533e-08
1.69911e-05
3.83029e-08
1.69521e-05
3.89763e-08
1.69127e-05
3.93845e-08
1.68736e-05
3.91647e-08
1.68351e-05
3.84312e-08
1.67974e-05
3.77392e-08
1.67597e-05
3.76774e-08
1.67213e-05
3.83976e-08
1.66819e-05
3.94227e-08
1.6642e-05
3.98531e-08
1.66032e-05
3.88095e-08
1.65674e-05
3.58215e-08
1.65364e-05
3.09961e-08
1.65115e-05
2.49388e-08
1.6493e-05
1.84922e-08
1.64805e-05
1.24543e-08
1.6473e-05
7.48965e-09
1.64693e-05
3.73249e-09
1.6468e-05
1.25945e-09
1.64682e-05
-1.95872e-10
1.64691e-05
-8.96066e-10
1.64703e-05
-1.12442e-09
1.64713e-05
-1.08238e-09
1.64723e-05
-9.17854e-10
1.6473e-05
-7.21542e-10
1.64735e-05
-5.4133e-10
1.64739e-05
-3.95683e-10
1.64742e-05
-2.86556e-10
1.64744e-05
-2.08549e-10
1.64746e-05
-1.54187e-10
1.64747e-05
-1.16547e-10
1.64748e-05
-9.02318e-11
1.64748e-05
-7.14285e-11
1.64749e-05
-5.75116e-11
1.64749e-05
-4.69316e-11
1.6475e-05
-3.85448e-11
1.6475e-05
-3.18948e-11
1.6475e-05
-2.65121e-11
1.64751e-05
-2.19996e-11
1.64751e-05
-1.8217e-11
1.64751e-05
-1.52082e-11
1.64751e-05
-1.24664e-11
1.64751e-05
-1.04995e-11
1.64751e-05
-8.38062e-12
1.64751e-05
-7.28098e-12
1.64751e-05
-5.43007e-12
1.64751e-05
-5.19828e-12
1.64751e-05
-3.17913e-12
1.64752e-05
-4.02151e-12
1.64752e-05
-1.27438e-12
1.64752e-05
-3.66387e-12
1.64752e-05
6.07057e-13
1.64752e-05
-4.16534e-12
1.64752e-05
2.83335e-12
1.64752e-05
-5.68277e-12
1.64752e-05
5.70433e-12
1.64752e-05
-8.28667e-12
1.64752e-05
9.419e-12
1.64752e-05
-1.19773e-11
1.64752e-05
1.38886e-11
1.64752e-05
-1.63722e-11
1.64752e-05
1.84176e-11
1.64752e-05
-2.02078e-11
1.64752e-05
2.13191e-11
1.64752e-05
-2.12385e-11
1.64752e-05
1.9842e-11
1.64752e-05
-1.62652e-11
1.64752e-05
1.07476e-11
1.64752e-05
-2.55148e-12
1.64752e-05
-7.76449e-12
1.64751e-05
2.03259e-11
1.64752e-05
-3.35746e-11
1.64751e-05
4.65821e-11
1.64752e-05
-5.69194e-11
1.64751e-05
6.29886e-11
1.64752e-05
-6.23672e-11
1.64751e-05
5.41445e-11
1.64752e-05
-3.78709e-11
1.64752e-05
1.55254e-11
1.64752e-05
1.01401e-11
1.64752e-05
-3.41609e-11
1.64751e-05
5.12757e-11
1.64752e-05
-5.6501e-11
1.64751e-05
4.78958e-11
1.64752e-05
-2.67632e-11
1.64752e-05
-1.28326e-12
1.64751e-05
2.84624e-11
1.64752e-05
-4.57311e-11
1.64751e-05
4.7014e-11
1.64752e-05
-3.10879e-11
1.64752e-05
3.84372e-12
1.64751e-05
2.5185e-11
1.64752e-05
-4.46335e-11
1.64751e-05
4.77295e-11
1.64752e-05
-3.30056e-11
1.64752e-05
7.99606e-12
1.64751e-05
1.82948e-11
1.64752e-05
-3.41761e-11
1.64751e-05
3.58578e-11
1.64752e-05
-1.94394e-11
1.64752e-05
-6.86315e-12
1.64751e-05
4.11579e-11
1.64752e-05
-6.46412e-11
1.64751e-05
7.84357e-11
1.64752e-05
-5.95343e-11
1.64751e-05
4.24322e-11
1.64751e-05
-9.55268e-12
1.64751e-05
4.38271e-11
1.64752e-05
-5.59294e-11
1.6475e-05
1.44212e-10
1.64751e-05
-1.01069e-10
1.64749e-05
1.7189e-10
1.6475e-05
-6.91792e-11
3.96904e-10
2.16315e-05
6.35719e-09
2.16348e-05
6.45345e-09
2.16386e-05
7.33738e-09
2.16426e-05
8.8227e-09
2.16464e-05
1.06813e-08
2.16496e-05
1.27313e-08
2.16523e-05
1.47383e-08
2.16542e-05
1.64653e-08
2.16554e-05
1.77537e-08
2.16562e-05
1.8567e-08
2.16565e-05
1.8968e-08
2.16566e-05
1.90513e-08
2.16569e-05
1.89359e-08
2.16574e-05
1.87562e-08
2.1658e-05
1.86232e-08
2.16588e-05
1.86255e-08
2.16596e-05
1.88042e-08
2.16603e-05
1.91254e-08
2.16609e-05
1.95135e-08
2.16614e-05
1.99044e-08
2.16618e-05
2.026e-08
2.1662e-05
2.05767e-08
2.16621e-05
2.08642e-08
2.16621e-05
2.10961e-08
2.1662e-05
2.12439e-08
2.1662e-05
2.13358e-08
2.1662e-05
2.14396e-08
2.1662e-05
2.16125e-08
2.1662e-05
2.18603e-08
2.16619e-05
2.21473e-08
2.16618e-05
2.24306e-08
2.16616e-05
2.27001e-08
2.16614e-05
2.29866e-08
2.16612e-05
2.32911e-08
2.16609e-05
2.35733e-08
2.16606e-05
2.38223e-08
2.16603e-05
2.40618e-08
2.16599e-05
2.4292e-08
2.16595e-05
2.44785e-08
2.16591e-05
2.46081e-08
2.16587e-05
2.47125e-08
2.16582e-05
2.48208e-08
2.16577e-05
2.49259e-08
2.16571e-05
2.50063e-08
2.16565e-05
2.50655e-08
2.16558e-05
2.51429e-08
2.16551e-05
2.52776e-08
2.16543e-05
2.54728e-08
2.16534e-05
2.57239e-08
2.16525e-05
2.60435e-08
2.16515e-05
2.64358e-08
2.16504e-05
2.69181e-08
2.16493e-05
2.75171e-08
2.16482e-05
2.81781e-08
2.1647e-05
2.87868e-08
2.16458e-05
2.9296e-08
2.16446e-05
2.97239e-08
2.16435e-05
3.00588e-08
2.16423e-05
3.02308e-08
2.16412e-05
3.01802e-08
2.164e-05
2.99425e-08
2.16388e-05
2.96242e-08
2.16375e-05
2.92751e-08
2.16361e-05
2.88904e-08
2.16346e-05
2.857e-08
2.1633e-05
2.85012e-08
2.16312e-05
2.87558e-08
2.16292e-05
2.92692e-08
2.16271e-05
3.00033e-08
2.16249e-05
3.0946e-08
2.16227e-05
3.19759e-08
2.16205e-05
3.29039e-08
2.16183e-05
3.36139e-08
2.16161e-05
3.40573e-08
2.1614e-05
3.41966e-08
2.16119e-05
3.40701e-08
2.16098e-05
3.38402e-08
2.16076e-05
3.37226e-08
2.16053e-05
3.38867e-08
2.16029e-05
3.4381e-08
2.16004e-05
3.50972e-08
2.15978e-05
3.58061e-08
2.15952e-05
3.62833e-08
2.15925e-05
3.64426e-08
2.15898e-05
3.6383e-08
2.15871e-05
3.63238e-08
2.15843e-05
3.64372e-08
2.15815e-05
3.67402e-08
2.15786e-05
3.71414e-08
2.15755e-05
3.75616e-08
2.15723e-05
3.79719e-08
2.15691e-05
3.83369e-08
2.15658e-05
3.86188e-08
2.15624e-05
3.88516e-08
2.15589e-05
3.91386e-08
2.15553e-05
3.95287e-08
2.15517e-05
3.99438e-08
2.1548e-05
4.0265e-08
2.15442e-05
4.0484e-08
2.15402e-05
4.07287e-08
2.15362e-05
4.1114e-08
2.15322e-05
4.15882e-08
2.15282e-05
4.19515e-08
2.15241e-05
4.20715e-08
2.15198e-05
4.20625e-08
2.15155e-05
4.22087e-08
2.15111e-05
4.26746e-08
2.15068e-05
4.32816e-08
2.15026e-05
4.36131e-08
2.14983e-05
4.33778e-08
2.14941e-05
4.26974e-08
2.14898e-05
4.20481e-08
2.14855e-05
4.19076e-08
2.14815e-05
4.23888e-08
2.14779e-05
4.30668e-08
2.14747e-05
4.30999e-08
2.14719e-05
4.15731e-08
2.14698e-05
3.78596e-08
2.1469e-05
3.18893e-08
2.14697e-05
2.4222e-08
2.14723e-05
1.58431e-08
2.1477e-05
7.79117e-09
2.14835e-05
9.99852e-10
2.14917e-05
-4.47628e-09
2.15009e-05
-7.95215e-09
2.15105e-05
-9.75884e-09
2.15197e-05
-1.01767e-08
2.15282e-05
-9.61338e-09
2.15356e-05
-8.44987e-09
2.15417e-05
-7.01216e-09
2.15465e-05
-5.54439e-09
2.15502e-05
-4.20436e-09
2.15529e-05
-3.07314e-09
2.15547e-05
-2.17453e-09
2.1556e-05
-1.49556e-09
2.15569e-05
-1.00385e-09
2.15574e-05
-6.60429e-10
2.15578e-05
-4.27902e-10
2.1558e-05
-2.74488e-10
2.15581e-05
-1.75163e-10
2.15581e-05
-1.11804e-10
2.15582e-05
-7.14197e-11
2.15582e-05
-4.5819e-11
2.15582e-05
-2.95422e-11
2.15582e-05
-1.85914e-11
2.15582e-05
-1.14163e-11
2.15582e-05
-6.6218e-12
2.15582e-05
-3.20331e-12
2.15582e-05
-9.76314e-13
2.15581e-05
8.67989e-13
2.15581e-05
1.80892e-12
2.15581e-05
2.93342e-12
2.15581e-05
3.02191e-12
2.15581e-05
3.98445e-12
2.15581e-05
3.29473e-12
2.15581e-05
4.56109e-12
2.15581e-05
2.88855e-12
2.15581e-05
5.04826e-12
2.15581e-05
1.85043e-12
2.15581e-05
5.85665e-12
2.15581e-05
-6.18357e-16
2.15581e-05
7.32803e-12
2.15581e-05
-2.74613e-12
2.15581e-05
9.80978e-12
2.15581e-05
-6.63349e-12
2.15581e-05
1.34721e-11
2.15581e-05
-1.16716e-11
2.15581e-05
1.8048e-11
2.15581e-05
-1.70006e-11
2.15581e-05
2.21939e-11
2.15581e-05
-2.06005e-11
2.15581e-05
2.30521e-11
2.15581e-05
-1.86942e-11
2.1558e-05
1.60584e-11
2.15581e-05
-6.42002e-12
2.1558e-05
-3.09825e-12
2.1558e-05
1.84069e-11
2.1558e-05
-3.31275e-11
2.1558e-05
5.07303e-11
2.15581e-05
-6.4259e-11
2.1558e-05
7.4625e-11
2.15581e-05
-7.54818e-11
2.1558e-05
6.74752e-11
2.1558e-05
-4.72456e-11
2.1558e-05
1.85449e-11
2.1558e-05
1.62046e-11
2.15581e-05
-4.82232e-11
2.1558e-05
7.17921e-11
2.15581e-05
-7.92803e-11
2.1558e-05
6.82466e-11
2.1558e-05
-3.89799e-11
2.1558e-05
1.11285e-13
2.1558e-05
3.6944e-11
2.15581e-05
-5.94241e-11
2.1558e-05
6.04854e-11
2.1558e-05
-3.80272e-11
2.1558e-05
5.64752e-13
2.1558e-05
3.8707e-11
2.15581e-05
-6.43177e-11
2.1558e-05
6.90467e-11
2.15581e-05
-5.10019e-11
2.1558e-05
2.08239e-11
2.1558e-05
1.05805e-11
2.1558e-05
-2.75223e-11
2.1558e-05
2.83371e-11
2.1558e-05
-7.37436e-12
2.15581e-05
-2.30501e-11
2.1558e-05
6.522e-11
2.15581e-05
-9.34519e-11
2.1558e-05
1.15032e-10
2.15581e-05
-9.23544e-11
2.1558e-05
7.38395e-11
2.1558e-05
-2.48284e-11
2.1558e-05
6.37836e-11
2.1558e-05
-6.85198e-11
2.1558e-05
1.76599e-10
2.1558e-05
-1.13195e-10
2.1558e-05
2.05976e-10
2.15579e-05
-3.13644e-11
3.8949e-10
2.35514e-05
5.45907e-09
2.35529e-05
4.99379e-09
2.35549e-05
5.29902e-09
2.35574e-05
6.34883e-09
2.35601e-05
7.96805e-09
2.35629e-05
9.95277e-09
2.35655e-05
1.20731e-08
2.35679e-05
1.40806e-08
2.35699e-05
1.57672e-08
2.35715e-05
1.70081e-08
2.35726e-05
1.77886e-08
2.35735e-05
1.81751e-08
2.35742e-05
1.82695e-08
2.35748e-05
1.81764e-08
2.35754e-05
1.80127e-08
2.35761e-05
1.78996e-08
2.3577e-05
1.79285e-08
2.3578e-05
1.81238e-08
2.3579e-05
1.84476e-08
2.35801e-05
1.88482e-08
2.35811e-05
1.92748e-08
2.3582e-05
1.97052e-08
2.35827e-05
2.01341e-08
2.35833e-05
2.05063e-08
2.35838e-05
2.07538e-08
2.35842e-05
2.08708e-08
2.35847e-05
2.09277e-08
2.35853e-05
2.10263e-08
2.3586e-05
2.12211e-08
2.35866e-05
2.14921e-08
2.35873e-05
2.17754e-08
2.35879e-05
2.20407e-08
2.35886e-05
2.23253e-08
2.35892e-05
2.26424e-08
2.35899e-05
2.29484e-08
2.35905e-05
2.32151e-08
2.35911e-05
2.34497e-08
2.35917e-05
2.36568e-08
2.35924e-05
2.38232e-08
2.3593e-05
2.39514e-08
2.35937e-05
2.40735e-08
2.35943e-05
2.4207e-08
2.35949e-05
2.43397e-08
2.35954e-05
2.44635e-08
2.35959e-05
2.45829e-08
2.35963e-05
2.47096e-08
2.35967e-05
2.48676e-08
2.35971e-05
2.50694e-08
2.35976e-05
2.5318e-08
2.3598e-05
2.56233e-08
2.35984e-05
2.59789e-08
2.3599e-05
2.63964e-08
2.35996e-05
2.69188e-08
2.36002e-05
2.75124e-08
2.36009e-05
2.80605e-08
2.36017e-05
2.85019e-08
2.36026e-05
2.88632e-08
2.36035e-05
2.91671e-08
2.36043e-05
2.93725e-08
2.36051e-05
2.94123e-08
2.36058e-05
2.92919e-08
2.36063e-05
2.91112e-08
2.36066e-05
2.8932e-08
2.36068e-05
2.87266e-08
2.36068e-05
2.85386e-08
2.36068e-05
2.85335e-08
2.36067e-05
2.88012e-08
2.36067e-05
2.92739e-08
2.36069e-05
2.98873e-08
2.36072e-05
3.06427e-08
2.36077e-05
3.14728e-08
2.36083e-05
3.22293e-08
2.36091e-05
3.28164e-08
2.361e-05
3.321e-08
2.36108e-05
3.33862e-08
2.36115e-05
3.3357e-08
2.36121e-05
3.32368e-08
2.36126e-05
3.31993e-08
2.36131e-05
3.33824e-08
2.36137e-05
3.38236e-08
2.36144e-05
3.44378e-08
2.36151e-05
3.50455e-08
2.36159e-05
3.54709e-08
2.36167e-05
3.56471e-08
2.36174e-05
3.56534e-08
2.36181e-05
3.56631e-08
2.36187e-05
3.58166e-08
2.36193e-05
3.61309e-08
2.362e-05
3.65256e-08
2.36206e-05
3.69276e-08
2.36212e-05
3.73142e-08
2.36219e-05
3.76687e-08
2.36226e-05
3.79657e-08
2.36232e-05
3.82215e-08
2.36238e-05
3.85091e-08
2.36245e-05
3.88756e-08
2.36251e-05
3.92758e-08
2.36258e-05
3.96143e-08
2.36264e-05
3.9863e-08
2.3627e-05
4.01051e-08
2.36277e-05
4.04397e-08
2.36285e-05
4.08538e-08
2.36292e-05
4.12088e-08
2.36299e-05
4.13869e-08
2.36305e-05
4.14343e-08
2.36312e-05
4.15393e-08
2.3632e-05
4.18436e-08
2.3633e-05
4.22636e-08
2.36341e-05
4.25269e-08
2.36351e-05
4.23993e-08
2.36359e-05
4.1891e-08
2.36367e-05
4.12731e-08
2.36377e-05
4.08985e-08
2.36392e-05
4.092e-08
2.36412e-05
4.10655e-08
2.36436e-05
4.06847e-08
2.36461e-05
3.90342e-08
2.36484e-05
3.55849e-08
2.365e-05
3.02499e-08
2.36508e-05
2.34306e-08
2.36508e-05
1.58504e-08
2.36502e-05
8.35688e-09
2.36495e-05
1.71446e-09
2.36483e-05
-3.22556e-09
2.3647e-05
-6.65968e-09
2.36458e-05
-8.52966e-09
2.36447e-05
-9.11652e-09
2.36438e-05
-8.75157e-09
2.36432e-05
-7.78343e-09
2.36427e-05
-6.51658e-09
2.36423e-05
-5.18697e-09
2.36421e-05
-3.95229e-09
2.36419e-05
-2.89749e-09
2.36418e-05
-2.05193e-09
2.36417e-05
-1.40835e-09
2.36416e-05
-9.39322e-10
2.36416e-05
-6.09841e-10
2.36415e-05
-3.85615e-10
2.36415e-05
-2.37082e-10
2.36414e-05
-1.40509e-10
2.36414e-05
-7.89231e-11
2.36414e-05
-3.97595e-11
2.36413e-05
-1.53781e-11
2.36413e-05
-6.63042e-13
2.36413e-05
9.04607e-12
2.36413e-05
1.46186e-11
2.36412e-05
1.78746e-11
2.36412e-05
1.97302e-11
2.36412e-05
2.04335e-11
2.36412e-05
2.06698e-11
2.36412e-05
2.01306e-11
2.36411e-05
1.96978e-11
2.36411e-05
1.84534e-11
2.36411e-05
1.79336e-11
2.36411e-05
1.61373e-11
2.36411e-05
1.5982e-11
2.36411e-05
1.35083e-11
2.36411e-05
1.42236e-11
2.36411e-05
1.06621e-11
2.36411e-05
1.29714e-11
2.3641e-05
7.50857e-12
2.3641e-05
1.24777e-11
2.3641e-05
3.96793e-12
2.3641e-05
1.29253e-11
2.3641e-05
-4.56727e-14
2.3641e-05
1.44196e-11
2.3641e-05
-4.71882e-12
2.3641e-05
1.66772e-11
2.3641e-05
-9.14654e-12
2.3641e-05
1.84054e-11
2.3641e-05
-1.15366e-11
2.3641e-05
1.7011e-11
2.3641e-05
-8.72287e-12
2.3641e-05
9.08079e-12
2.3641e-05
2.25307e-12
2.3641e-05
-8.03613e-12
2.3641e-05
2.32271e-11
2.3641e-05
-3.32237e-11
2.3641e-05
4.82875e-11
2.3641e-05
-5.58718e-11
2.3641e-05
6.25129e-11
2.3641e-05
-5.80057e-11
2.3641e-05
4.7678e-11
2.3641e-05
-2.59527e-11
2.3641e-05
-4.40082e-14
2.3641e-05
3.10225e-11
2.3641e-05
-5.6766e-11
2.3641e-05
7.37723e-11
2.3641e-05
-7.40022e-11
2.3641e-05
5.83931e-11
2.3641e-05
-2.81415e-11
2.3641e-05
-6.88145e-12
2.3641e-05
3.80224e-11
2.3641e-05
-5.30627e-11
2.3641e-05
4.7305e-11
2.3641e-05
-2.06146e-11
2.3641e-05
-1.63194e-11
2.3641e-05
5.20782e-11
2.3641e-05
-7.20528e-11
2.3641e-05
7.17407e-11
2.3641e-05
-5.09652e-11
2.3641e-05
2.32828e-11
2.3641e-05
2.59701e-12
2.3641e-05
-1.17825e-11
2.3641e-05
6.62614e-12
2.3641e-05
1.91496e-11
2.3641e-05
-4.81474e-11
2.3641e-05
8.68395e-11
2.3641e-05
-1.05356e-10
2.3641e-05
1.21757e-10
2.3641e-05
-9.20036e-11
2.3641e-05
7.88915e-11
2.3641e-05
-2.74576e-11
2.3641e-05
7.1735e-11
2.3641e-05
-5.94934e-11
2.3641e-05
1.65502e-10
2.36409e-05
-7.7277e-11
2.3641e-05
1.80112e-10
2.36409e-05
2.40692e-11
3.38845e-10
2.56391e-05
4.25682e-09
2.56405e-05
3.65968e-09
2.5642e-05
3.77671e-09
2.56437e-05
4.62788e-09
2.56456e-05
6.08713e-09
2.56476e-05
7.96256e-09
2.56496e-05
1.00294e-08
2.56516e-05
1.20611e-08
2.56535e-05
1.38652e-08
2.56553e-05
1.53011e-08
2.56567e-05
1.63073e-08
2.5658e-05
1.69223e-08
2.5659e-05
1.72372e-08
2.56599e-05
1.73404e-08
2.56605e-05
1.73244e-08
2.56612e-05
1.72724e-08
2.56618e-05
1.72648e-08
2.56626e-05
1.73562e-08
2.56635e-05
1.75562e-08
2.56645e-05
1.78543e-08
2.56655e-05
1.82271e-08
2.56666e-05
1.86723e-08
2.56675e-05
1.91827e-08
2.56683e-05
1.96921e-08
2.5669e-05
2.0108e-08
2.56695e-05
2.03499e-08
2.567e-05
2.04298e-08
2.56706e-05
2.04678e-08
2.56712e-05
2.05793e-08
2.56719e-05
2.07961e-08
2.56726e-05
2.1064e-08
2.56733e-05
2.13235e-08
2.56741e-05
2.1592e-08
2.56748e-05
2.19037e-08
2.56755e-05
2.22448e-08
2.56761e-05
2.25681e-08
2.56768e-05
2.28277e-08
2.56774e-05
2.30127e-08
2.56781e-05
2.31426e-08
2.56788e-05
2.3249e-08
2.56795e-05
2.33741e-08
2.56802e-05
2.35296e-08
2.56808e-05
2.36836e-08
2.56815e-05
2.3833e-08
2.5682e-05
2.39971e-08
2.56826e-05
2.41666e-08
2.56831e-05
2.4339e-08
2.56837e-05
2.45349e-08
2.56842e-05
2.47745e-08
2.56848e-05
2.50672e-08
2.56853e-05
2.53952e-08
2.5686e-05
2.57618e-08
2.56867e-05
2.62213e-08
2.56874e-05
2.67633e-08
2.56882e-05
2.72695e-08
2.5689e-05
2.76589e-08
2.56899e-05
2.79648e-08
2.56909e-05
2.82429e-08
2.56918e-05
2.8476e-08
2.56926e-05
2.85918e-08
2.56933e-05
2.85715e-08
2.56939e-05
2.85022e-08
2.56944e-05
2.84564e-08
2.56947e-05
2.83972e-08
2.56949e-05
2.83192e-08
2.56951e-05
2.83558e-08
2.56953e-05
2.86176e-08
2.56955e-05
2.90487e-08
2.56959e-05
2.95562e-08
2.56964e-05
3.0136e-08
2.56971e-05
3.07699e-08
2.56979e-05
3.13614e-08
2.56989e-05
3.18386e-08
2.56999e-05
3.21934e-08
2.57009e-05
3.24134e-08
2.57018e-05
3.24961e-08
2.57025e-05
3.25177e-08
2.57031e-05
3.2597e-08
2.57037e-05
3.28071e-08
2.57043e-05
3.31534e-08
2.57052e-05
3.35829e-08
2.57062e-05
3.40055e-08
2.57074e-05
3.43428e-08
2.57084e-05
3.45717e-08
2.57094e-05
3.47271e-08
2.57102e-05
3.48704e-08
2.57109e-05
3.50618e-08
2.57117e-05
3.53311e-08
2.57126e-05
3.56623e-08
2.57135e-05
3.60187e-08
2.57144e-05
3.63699e-08
2.57154e-05
3.66989e-08
2.57164e-05
3.70018e-08
2.57173e-05
3.72953e-08
2.57182e-05
3.76083e-08
2.57191e-05
3.79464e-08
2.57201e-05
3.82798e-08
2.57211e-05
3.85779e-08
2.57222e-05
3.88522e-08
2.57231e-05
3.91436e-08
2.57241e-05
3.94711e-08
2.57251e-05
3.97954e-08
2.57263e-05
4.00439e-08
2.57275e-05
4.01926e-08
2.57286e-05
4.0304e-08
2.57297e-05
4.04779e-08
2.57308e-05
4.07404e-08
2.57321e-05
4.0984e-08
2.57336e-05
4.10327e-08
2.57352e-05
4.07851e-08
2.57368e-05
4.03151e-08
2.57382e-05
3.9829e-08
2.57396e-05
3.95102e-08
2.57412e-05
3.93508e-08
2.57432e-05
3.90639e-08
2.57457e-05
3.81747e-08
2.57485e-05
3.61927e-08
2.57513e-05
3.27826e-08
2.57536e-05
2.79272e-08
2.57551e-05
2.19786e-08
2.57554e-05
1.55538e-08
2.57544e-05
9.34444e-09
2.57522e-05
3.86982e-09
2.57496e-05
-5.83286e-10
2.57468e-05
-3.87591e-09
2.57441e-05
-5.85662e-09
2.57418e-05
-6.74898e-09
2.57398e-05
-6.80721e-09
2.57384e-05
-6.30504e-09
2.57373e-05
-5.47726e-09
2.57366e-05
-4.51812e-09
2.57363e-05
-3.56741e-09
2.57361e-05
-2.7104e-09
2.5736e-05
-1.98861e-09
2.5736e-05
-1.41218e-09
2.57361e-05
-9.71379e-10
2.57361e-05
-6.4628e-10
2.57361e-05
-4.1411e-10
2.57361e-05
-2.53027e-10
2.57361e-05
-1.43429e-10
2.57361e-05
-7.12342e-11
2.57361e-05
-2.34829e-11
2.57361e-05
6.25276e-12
2.57361e-05
2.44151e-11
2.5736e-05
3.57745e-11
2.5736e-05
4.19276e-11
2.5736e-05
4.46909e-11
2.5736e-05
4.53999e-11
2.57359e-05
4.46099e-11
2.57359e-05
4.31684e-11
2.57359e-05
4.09253e-11
2.57359e-05
3.87759e-11
2.57359e-05
3.5919e-11
2.57358e-05
3.37964e-11
2.57358e-05
3.05955e-11
2.57358e-05
2.89849e-11
2.57358e-05
2.53648e-11
2.57358e-05
2.47421e-11
2.57358e-05
2.03394e-11
2.57358e-05
2.13308e-11
2.57358e-05
1.54565e-11
2.57358e-05
1.89259e-11
2.57357e-05
1.06282e-11
2.57357e-05
1.76194e-11
2.57357e-05
5.77069e-12
2.57357e-05
1.73179e-11
2.57357e-05
9.42039e-13
2.57357e-05
1.7485e-11
2.57357e-05
-2.84959e-12
2.57357e-05