/*--------------------------------*- C++ -*----------------------------------*\
| =========                 |                                                 |
| \\      /  F ield         | OpenFOAM: The Open Source CFD Toolbox           |
|  \\    /   O peration     | Version:  v1906                                 |
|   \\  /    A nd           | Web:      www.OpenFOAM.com                      |
|    \\/     M anipulation  |                                                 |
\*---------------------------------------------------------------------------*/
FoamFile
{
    version     2.0;
    format      ascii;
    class       volVectorField;
    location    "0.4";
    object      U;
}
// * * * * * * * * * * * * * * * * * * * * * * * * * * * * * * * * * * * * * //

dimensions      [0 1 -1 0 0 0 0];


internalField   nonuniform List<vector> 
4800
(
(0.997589 -1.18695e-06 0)
(1.00222 -2.38522e-05 0)
(0.997907 -1.6097e-05 0)
(1.00181 1.94766e-06 0)
(0.998137 1.80012e-05 0)
(1.00143 1.6032e-05 0)
(0.998318 1.73787e-05 0)
(1.00111 7.24412e-06 0)
(0.998466 -5.00471e-06 0)
(1.00084 -2.18162e-05 0)
(0.998636 -1.53119e-05 0)
(1.00072 2.49241e-05 0)
(0.998965 0.000101172 0)
(1.0009 0.000191961 0)
(0.999584 0.000277056 0)
(1.00134 0.000330458 0)
(1.00027 0.000359786 0)
(1.00172 0.000364207 0)
(1.00069 0.000361689 0)
(1.00169 0.000356846 0)
(0.999941 -2.12144e-06 0)
(1.00003 -2.68391e-05 0)
(0.999923 -2.05797e-05 0)
(0.99996 8.86905e-07 0)
(0.999851 3.22145e-05 0)
(0.999852 3.43066e-05 0)
(0.999765 3.31321e-05 0)
(0.999754 1.47537e-05 0)
(0.999687 1.18779e-05 0)
(0.999699 2.16783e-05 0)
(0.999711 8.42576e-05 0)
(0.999816 0.000185784 0)
(0.999959 0.000331075 0)
(1.00019 0.000467718 0)
(1.00044 0.000573556 0)
(1.00071 0.000622588 0)
(1.00094 0.00063094 0)
(1.00112 0.000600611 0)
(1.00122 0.000558298 0)
(1.00119 0.000511458 0)
(0.999999 -1.4042e-06 0)
(0.99999 -5.55018e-06 0)
(0.999968 -8.6219e-06 0)
(0.999937 -1.64667e-05 0)
(0.999888 1.23851e-05 0)
(0.999832 4.42699e-05 0)
(0.999783 5.16196e-05 0)
(0.999742 5.08997e-05 0)
(0.99972 7.65781e-05 0)
(0.999732 0.000136913 0)
(0.999786 0.000237522 0)
(0.999887 0.000350173 0)
(1.00004 0.000459694 0)
(1.00023 0.000532531 0)
(1.00046 0.000565226 0)
(1.00069 0.000557313 0)
(1.00089 0.000519916 0)
(1.00105 0.000461261 0)
(1.00114 0.000393974 0)
(1.00111 0.000326765 0)
(0.999999 1.30836e-06 0)
(0.999989 -5.85485e-06 0)
(0.999964 -9.9291e-07 0)
(0.999938 -1.22996e-05 0)
(0.999902 -2.18596e-07 0)
(0.999846 4.46213e-05 0)
(0.99979 8.5105e-05 0)
(0.999752 0.000117022 0)
(0.999744 0.000161967 0)
(0.999774 0.000225804 0)
(0.999842 0.000309301 0)
(0.999945 0.000400067 0)
(1.00009 0.000478484 0)
(1.00026 0.000531798 0)
(1.00046 0.000558807 0)
(1.00067 0.00055311 0)
(1.00085 0.000520119 0)
(1.001 0.000464268 0)
(1.00108 0.000397291 0)
(1.00105 0.000328926 0)
(1 2.44003e-06 0)
(0.99999 -3.48063e-06 0)
(0.999967 4.5724e-06 0)
(0.999938 1.22585e-05 0)
(0.999909 1.50984e-05 0)
(0.999866 3.9984e-05 0)
(0.999814 9.9888e-05 0)
(0.999778 0.000167902 0)
(0.999776 0.000237554 0)
(0.999814 0.00030191 0)
(0.999891 0.000370863 0)
(0.999998 0.000440108 0)
(1.00013 0.000505537 0)
(1.0003 0.000552786 0)
(1.00048 0.000576061 0)
(1.00065 0.000567964 0)
(1.0008 0.00053036 0)
(1.00092 0.000464456 0)
(1.00098 0.000381803 0)
(1.00095 0.000293318 0)
(1 2.46752e-06 0)
(0.999991 3.36799e-06 0)
(0.99997 7.25592e-06 0)
(0.999942 2.3945e-05 0)
(0.999913 3.80842e-05 0)
(0.999883 5.95957e-05 0)
(0.99985 0.000114162 0)
(0.999823 0.000194775 0)
(0.999819 0.000284971 0)
(0.999855 0.00036083 0)
(0.999932 0.000422987 0)
(1.00004 0.00047435 0)
(1.00017 0.000519951 0)
(1.00032 0.000549231 0)
(1.00048 0.000557695 0)
(1.00062 0.00053966 0)
(1.00074 0.000498599 0)
(1.00082 0.000434367 0)
(1.00086 0.000355809 0)
(1.00082 0.00027188 0)
(1 2.941e-06 0)
(0.99999 9.25058e-06 0)
(0.999973 1.65227e-05 0)
(0.999948 3.21081e-05 0)
(0.999922 6.00903e-05 0)
(0.9999 9.31293e-05 0)
(0.999882 0.000142556 0)
(0.999871 0.000211934 0)
(0.999875 0.000301526 0)
(0.999904 0.00038743 0)
(0.999971 0.000452939 0)
(1.00007 0.000493035 0)
(1.0002 0.000516342 0)
(1.00033 0.000522817 0)
(1.00046 0.000514199 0)
(1.00058 0.0004893 0)
(1.00068 0.000451194 0)
(1.00073 0.000399395 0)
(1.00075 0.000338322 0)
(1.00071 0.000272607 0)
(1 5.11842e-06 0)
(0.999992 1.2648e-05 0)
(0.999975 2.65723e-05 0)
(0.999956 4.47392e-05 0)
(0.999938 7.73092e-05 0)
(0.99992 0.000119919 0)
(0.999911 0.000172007 0)
(0.999914 0.000230838 0)
(0.99993 0.000304189 0)
(0.999959 0.000382047 0)
(1.00001 0.000448133 0)
(1.00009 0.000485555 0)
(1.0002 0.00049868 0)
(1.00032 0.000491395 0)
(1.00044 0.000471955 0)
(1.00054 0.000442311 0)
(1.00062 0.000406956 0)
(1.00066 0.000365806 0)
(1.00066 0.000321458 0)
(1.00061 0.000274608 0)
(1 6.82166e-06 0)
(0.999993 1.81395e-05 0)
(0.999981 3.53212e-05 0)
(0.999966 6.05657e-05 0)
(0.999953 9.37205e-05 0)
(0.999945 0.0001374 0)
(0.999942 0.000190772 0)
(0.999952 0.000246487 0)
(0.999976 0.000304136 0)
(1.00001 0.000364932 0)
(1.00005 0.000420789 0)
(1.00011 0.000459465 0)
(1.00019 0.00047494 0)
(1.00029 0.000468041 0)
(1.0004 0.000445397 0)
(1.00049 0.000412043 0)
(1.00056 0.000375304 0)
(1.0006 0.000338602 0)
(1.00059 0.000304798 0)
(1.00054 0.000274333 0)
(1 8.35012e-06 0)
(0.999995 2.4093e-05 0)
(0.999986 4.48632e-05 0)
(0.999977 7.21239e-05 0)
(0.999971 0.000108753 0)
(0.999969 0.000150308 0)
(0.999974 0.00020016 0)
(0.999986 0.000251345 0)
(1.00001 0.00030046 0)
(1.00005 0.000345832 0)
(1.00009 0.000388169 0)
(1.00014 0.000421305 0)
(1.0002 0.000438537 0)
(1.00027 0.000437496 0)
(1.00036 0.000419068 0)
(1.00043 0.000388484 0)
(1.0005 0.0003521 0)
(1.00053 0.000316726 0)
(1.00054 0.000287014 0)
(1.0005 0.00026574 0)
(1 1.01469e-05 0)
(0.999997 2.96437e-05 0)
(0.999993 5.29461e-05 0)
(0.999988 8.23808e-05 0)
(0.999987 0.000118796 0)
(0.999993 0.000158867 0)
(1 0.000202907 0)
(1.00002 0.000247959 0)
(1.00004 0.000289204 0)
(1.00008 0.00032549 0)
(1.00012 0.000356493 0)
(1.00016 0.000381364 0)
(1.0002 0.00039658 0)
(1.00026 0.000399287 0)
(1.00032 0.000389353 0)
(1.00038 0.000367583 0)
(1.00043 0.000338166 0)
(1.00047 0.00030654 0)
(1.00048 0.000278721 0)
(1.00046 0.000259333 0)
(1 1.1656e-05 0)
(0.999999 3.4421e-05 0)
(0.999998 6.03125e-05 0)
(0.999999 8.88473e-05 0)
(1 0.000124208 0)
(1.00001 0.000162139 0)
(1.00003 0.000200058 0)
(1.00004 0.000239178 0)
(1.00007 0.000272914 0)
(1.0001 0.000302315 0)
(1.00013 0.000325819 0)
(1.00017 0.000344264 0)
(1.00021 0.000355597 0)
(1.00025 0.000359282 0)
(1.00029 0.000354681 0)
(1.00034 0.000342346 0)
(1.00037 0.000323457 0)
(1.0004 0.00030059 0)
(1.00042 0.000278042 0)
(1.00042 0.000259811 0)
(1 1.32579e-05 0)
(1 3.76063e-05 0)
(1 6.4373e-05 0)
(1.00001 9.39948e-05 0)
(1.00002 0.000124543 0)
(1.00003 0.000159491 0)
(1.00005 0.00019261 0)
(1.00006 0.000224295 0)
(1.00009 0.000253049 0)
(1.00012 0.00027625 0)
(1.00015 0.000295289 0)
(1.00018 0.000309354 0)
(1.00021 0.000318761 0)
(1.00024 0.000322219 0)
(1.00027 0.000320413 0)
(1.00031 0.000314249 0)
(1.00033 0.000304675 0)
(1.00035 0.000291686 0)
(1.00037 0.000277018 0)
(1.00037 0.00026273 0)
(1 1.38555e-05 0)
(1 3.99009e-05 0)
(1.00001 6.59247e-05 0)
(1.00002 9.42628e-05 0)
(1.00003 0.000122771 0)
(1.00004 0.00015164 0)
(1.00006 0.000180455 0)
(1.00008 0.000207351 0)
(1.0001 0.000230361 0)
(1.00013 0.00024932 0)
(1.00016 0.000264108 0)
(1.00018 0.000275677 0)
(1.0002 0.000284097 0)
(1.00023 0.000287962 0)
(1.00026 0.000288271 0)
(1.00028 0.000285238 0)
(1.00031 0.000280804 0)
(1.00032 0.000274896 0)
(1.00033 0.000267697 0)
(1.00033 0.000259529 0)
(1 1.39129e-05 0)
(1 4.00964e-05 0)
(1.00001 6.49105e-05 0)
(1.00002 9.09805e-05 0)
(1.00004 0.000116597 0)
(1.00005 0.00014153 0)
(1.00007 0.000164874 0)
(1.00009 0.000186831 0)
(1.00011 0.000206143 0)
(1.00014 0.000221137 0)
(1.00016 0.000233336 0)
(1.00018 0.000242785 0)
(1.0002 0.00025044 0)
(1.00022 0.000255349 0)
(1.00024 0.000257201 0)
(1.00027 0.000256371 0)
(1.00028 0.00025428 0)
(1.0003 0.000251789 0)
(1.0003 0.000249352 0)
(1.0003 0.000246396 0)
(1 1.32165e-05 0)
(1.00001 3.84294e-05 0)
(1.00002 6.11879e-05 0)
(1.00003 8.42369e-05 0)
(1.00004 0.000106693 0)
(1.00006 0.000127658 0)
(1.00008 0.000146987 0)
(1.0001 0.000164459 0)
(1.00012 0.000180343 0)
(1.00014 0.00019295 0)
(1.00016 0.0002028 0)
(1.00018 0.000210528 0)
(1.0002 0.000217156 0)
(1.00021 0.000222217 0)
(1.00023 0.000225412 0)
(1.00025 0.000226398 0)
(1.00027 0.000226074 0)
(1.00028 0.000225289 0)
(1.00028 0.000224872 0)
(1.00029 0.000224822 0)
(1 1.19384e-05 0)
(1.00001 3.46662e-05 0)
(1.00002 5.48794e-05 0)
(1.00003 7.43464e-05 0)
(1.00005 9.32906e-05 0)
(1.00006 0.000110664 0)
(1.00008 0.000126247 0)
(1.0001 0.000139941 0)
(1.00012 0.000152477 0)
(1.00014 0.000163036 0)
(1.00016 0.000171372 0)
(1.00018 0.000177875 0)
(1.0002 0.000183443 0)
(1.00021 0.00018826 0)
(1.00022 0.000192033 0)
(1.00024 0.000194406 0)
(1.00025 0.000195574 0)
(1.00026 0.000196225 0)
(1.00027 0.000197051 0)
(1.00027 0.000198429 0)
(1 1.01774e-05 0)
(1.00001 2.92885e-05 0)
(1.00002 4.61977e-05 0)
(1.00003 6.17151e-05 0)
(1.00005 7.65597e-05 0)
(1.00007 9.00498e-05 0)
(1.00009 0.000101969 0)
(1.00011 0.000112311 0)
(1.00012 0.00012169 0)
(1.00014 0.00012998 0)
(1.00016 0.00013684 0)
(1.00018 0.000142258 0)
(1.00019 0.000146736 0)
(1.00021 0.000150705 0)
(1.00022 0.000154113 0)
(1.00023 0.00015673 0)
(1.00024 0.00015844 0)
(1.00026 0.000159571 0)
(1.00026 0.000160627 0)
(1.00027 0.000162062 0)
(1 8.25553e-06 0)
(1.00001 2.37917e-05 0)
(1.00002 3.78264e-05 0)
(1.00003 5.0623e-05 0)
(1.00005 6.27196e-05 0)
(1.00007 7.38952e-05 0)
(1.00009 8.39236e-05 0)
(1.00011 9.26426e-05 0)
(1.00012 0.000100431 0)
(1.00014 0.000107537 0)
(1.00016 0.000113809 0)
(1.00017 0.000119089 0)
(1.00019 0.00012353 0)
(1.0002 0.000127455 0)
(1.00021 0.000130984 0)
(1.00022 0.000134003 0)
(1.00023 0.000136369 0)
(1.00025 0.000138118 0)
(1.00025 0.000139516 0)
(1.00026 0.000140899 0)
(1 3.64524e-06 0)
(1.00001 1.06549e-05 0)
(1.00002 1.71818e-05 0)
(1.00003 2.32577e-05 0)
(1.00005 2.90381e-05 0)
(1.00007 3.44752e-05 0)
(1.00009 3.94353e-05 0)
(1.00011 4.38376e-05 0)
(1.00013 4.77923e-05 0)
(1.00014 5.14258e-05 0)
(1.00016 5.47228e-05 0)
(1.00018 5.76161e-05 0)
(1.00019 6.01095e-05 0)
(1.0002 6.23018e-05 0)
(1.00021 6.42866e-05 0)
(1.00022 6.6075e-05 0)
(1.00023 6.76279e-05 0)
(1.00024 6.8914e-05 0)
(1.00025 6.99843e-05 0)
(1.00026 7.09396e-05 0)
(1.00044 0.000372432 0)
(0.999031 0.000416603 0)
(0.997572 0.000481187 0)
(0.996191 0.000551298 0)
(0.99494 0.000619085 0)
(0.993835 0.0006812 0)
(0.99287 0.000733244 0)
(0.992011 0.000772221 0)
(0.991211 0.000797164 0)
(0.990425 0.000809572 0)
(0.989622 0.000812502 0)
(0.988794 0.000809271 0)
(0.987938 0.00080307 0)
(0.987053 0.000796856 0)
(0.986127 0.000792463 0)
(0.985147 0.000791191 0)
(0.984109 0.000793728 0)
(0.98303 0.000798845 0)
(0.981941 0.000804662 0)
(0.980874 0.000809585 0)
(0.979843 0.000812881 0)
(0.978832 0.000814925 0)
(0.977813 0.000816064 0)
(0.976764 0.000815977 0)
(0.975685 0.000814556 0)
(0.974601 0.000812607 0)
(0.973533 0.000811792 0)
(0.97248 0.000813198 0)
(0.97142 0.000816314 0)
(0.97033 0.000820159 0)
(0.969201 0.00082405 0)
(0.968046 0.0008279 0)
(0.966884 0.000832195 0)
(0.965731 0.000836405 0)
(0.964582 0.000839292 0)
(0.96342 0.00084097 0)
(0.962227 0.000842338 0)
(0.961011 0.000843572 0)
(0.959796 0.000843576 0)
(0.9586 0.000840999 0)
(0.957408 0.000836413 0)
(0.956194 0.000831482 0)
(0.954952 0.000826581 0)
(0.953701 0.000820784 0)
(0.952462 0.000813823 0)
(0.951243 0.000807221 0)
(0.950029 0.00080286 0)
(0.948798 0.000801244 0)
(0.947543 0.000802387 0)
(0.94628 0.000806355 0)
(0.945021 0.00081274 0)
(0.943752 0.000821885 0)
(0.942439 0.000834565 0)
(0.941073 0.000849276 0)
(0.939683 0.000862409 0)
(0.938293 0.000872076 0)
(0.93689 0.00087854 0)
(0.935449 0.00088147 0)
(0.933975 0.000878629 0)
(0.932504 0.000867981 0)
(0.93106 0.000850791 0)
(0.929631 0.00083073 0)
(0.928202 0.000809748 0)
(0.926797 0.000787999 0)
(0.925436 0.000768553 0)
(0.924099 0.000757128 0)
(0.922746 0.000755773 0)
(0.921375 0.00076218 0)
(0.919991 0.000775398 0)
(0.918574 0.000795473 0)
(0.917104 0.000818275 0)
(0.915583 0.000836954 0)
(0.914024 0.000848293 0)
(0.91243 0.00085254 0)
(0.910815 0.000849292 0)
(0.909199 0.000838684 0)
(0.907599 0.000824645 0)
(0.906015 0.000813994 0)
(0.904436 0.000811935 0)
(0.902843 0.000818871 0)
(0.901219 0.000830422 0)
(0.899562 0.000839496 0)
(0.897881 0.000840538 0)
(0.896185 0.000832932 0)
(0.894487 0.000821658 0)
(0.892797 0.00081371 0)
(0.89111 0.000811905 0)
(0.889414 0.000813376 0)
(0.887701 0.000814005 0)
(0.885974 0.000813228 0)
(0.884233 0.000812842 0)
(0.882478 0.000812689 0)
(0.880708 0.000810825 0)
(0.878929 0.000807241 0)
(0.877144 0.000805053 0)
(0.875348 0.00080616 0)
(0.873531 0.000807879 0)
(0.871697 0.000806345 0)
(0.869855 0.000801574 0)
(0.868011 0.000798094 0)
(0.866158 0.000799313 0)
(0.864282 0.000802522 0)
(0.862382 0.000801658 0)
(0.860472 0.000794645 0)
(0.858568 0.000786552 0)
(0.856671 0.000784507 0)
(0.854763 0.000789823 0)
(0.852821 0.000795505 0)
(0.850846 0.000791993 0)
(0.848864 0.000776218 0)
(0.846911 0.000755547 0)
(0.845002 0.000742783 0)
(0.843117 0.00074616 0)
(0.841213 0.000761785 0)
(0.839256 0.000773952 0)
(0.837251 0.000763355 0)
(0.835253 0.000717627 0)
(0.833355 0.00063723 0)
(0.831658 0.000534144 0)
(0.830243 0.000425487 0)
(0.829153 0.000326692 0)
(0.828385 0.000246679 0)
(0.827899 0.00018399 0)
(0.827633 0.000133985 0)
(0.827521 0.000100619 0)
(0.827505 7.90645e-05 0)
(0.82754 6.46686e-05 0)
(0.827595 5.49044e-05 0)
(0.827653 4.6991e-05 0)
(0.827704 3.96273e-05 0)
(0.827746 3.24884e-05 0)
(0.827777 2.5717e-05 0)
(0.8278 1.95973e-05 0)
(0.827817 1.43594e-05 0)
(0.827829 1.01059e-05 0)
(0.827838 6.81567e-06 0)
(0.827845 4.38186e-06 0)
(0.82785 2.65475e-06 0)
(0.827854 1.47662e-06 0)
(0.827857 7.05523e-07 0)
(0.82786 2.24012e-07 0)
(0.827862 -5.62497e-08 0)
(0.827864 -2.0324e-07 0)
(0.827865 -2.64299e-07 0)
(0.827866 -2.74386e-07 0)
(0.827867 -2.58421e-07 0)
(0.827868 -2.34673e-07 0)
(0.827869 -2.05304e-07 0)
(0.827869 -1.81452e-07 0)
(0.82787 -1.52681e-07 0)
(0.82787 -1.36374e-07 0)
(0.82787 -1.09231e-07 0)
(0.827871 -1.03862e-07 0)
(0.827871 -7.40658e-08 0)
(0.827871 -8.33838e-08 0)
(0.827871 -4.32294e-08 0)
(0.827872 -7.4773e-08 0)
(0.827871 -1.20891e-08 0)
(0.827872 -7.86913e-08 0)
(0.827871 2.27413e-08 0)
(0.827872 -9.7004e-08 0)
(0.827871 6.44816e-08 0)
(0.827873 -1.27949e-07 0)
(0.827871 1.14149e-07 0)
(0.827873 -1.71076e-07 0)
(0.82787 1.70597e-07 0)
(0.827874 -2.20774e-07 0)
(0.827869 2.2601e-07 0)
(0.827876 -2.63641e-07 0)
(0.827867 2.61162e-07 0)
(0.827877 -2.74255e-07 0)
(0.827865 2.48009e-07 0)
(0.827879 -2.20448e-07 0)
(0.827863 1.47505e-07 0)
(0.827882 -5.13456e-08 0)
(0.82786 -7.97006e-08 0)
(0.827885 1.99611e-07 0)
(0.827856 -3.36412e-07 0)
(0.82789 4.65142e-07 0)
(0.827852 -5.82834e-07 0)
(0.827894 6.58769e-07 0)
(0.827847 -6.84752e-07 0)
(0.827898 6.33254e-07 0)
(0.827843 -4.98216e-07 0)
(0.827901 2.68218e-07 0)
(0.827842 1.52521e-08 0)
(0.827901 -2.45209e-07 0)
(0.827844 4.25919e-07 0)
(0.827898 -5.22737e-07 0)
(0.827847 4.97253e-07 0)
(0.827895 -3.33343e-07 0)
(0.827849 3.56151e-08 0)
(0.827896 2.2971e-07 0)
(0.827846 -4.09805e-07 0)
(0.827899 4.697e-07 0)
(0.827842 -3.73169e-07 0)
(0.827903 1.2374e-07 0)
(0.827841 1.53082e-07 0)
(0.827902 -3.46198e-07 0)
(0.827843 4.20945e-07 0)
(0.8279 -3.32972e-07 0)
(0.827843 1.03875e-07 0)
(0.827902 1.82351e-07 0)
(0.82784 -3.59826e-07 0)
(0.827906 4.0658e-07 0)
(0.827835 -2.91061e-07 0)
(0.827908 6.54582e-08 0)
(0.827835 2.3083e-07 0)
(0.827906 -4.77647e-07 0)
(0.827838 6.60201e-07 0)
(0.827903 -5.60713e-07 0)
(0.827837 3.90299e-07 0)
(0.827904 -5.53268e-08 0)
(0.82783 3.19426e-07 0)
(0.827903 -4.7073e-07 0)
(0.827823 1.31059e-06 0)
(0.827889 -1.0237e-06 0)
(0.82781 1.62334e-06 0)
(0.827867 -8.80003e-07 0)
(0.827777 3.21424e-06 0)
(1.00096 0.000492892 0)
(1.00054 0.000519679 0)
(1.00004 0.000588535 0)
(0.999598 0.000681569 0)
(0.99928 0.000784807 0)
(0.999107 0.000889309 0)
(0.999071 0.000984201 0)
(0.999145 0.00106018 0)
(0.999284 0.00111162 0)
(0.999449 0.00113812 0)
(0.999612 0.00114393 0)
(0.999763 0.00113497 0)
(0.9999 0.00111757 0)
(1.00002 0.00109803 0)
(1.00011 0.00108139 0)
(1.00015 0.0010719 0)
(1.00014 0.00107173 0)
(1.0001 0.00107908 0)
(1.00004 0.00108993 0)
(1.00001 0.00110061 0)
(1.00002 0.00110909 0)
(1.00006 0.00111541 0)
(1.00009 0.00111994 0)
(1.0001 0.00112109 0)
(1.00008 0.00111753 0)
(1.00007 0.00111113 0)
(1.00008 0.00110595 0)
(1.00011 0.00110514 0)
(1.00014 0.00110832 0)
(1.00015 0.00111296 0)
(1.00013 0.00111711 0)
(1.00009 0.00112087 0)
(1.00006 0.00112569 0)
(1.00005 0.00113091 0)
(1.00005 0.00113413 0)
(1.00005 0.00113515 0)
(1.00003 0.00113614 0)
(1 0.00113809 0)
(0.999974 0.001139 0)
(0.999971 0.00113673 0)
(0.999978 0.00113227 0)
(0.999968 0.00112815 0)
(0.99993 0.00112484 0)
(0.999881 0.00112031 0)
(0.999842 0.0011134 0)
(0.999822 0.00110627 0)
(0.999806 0.00110176 0)
(0.999774 0.00110035 0)
(0.999724 0.00110135 0)
(0.999672 0.00110448 0)
(0.999636 0.00110959 0)
(0.999608 0.00111815 0)
(0.99956 0.00113233 0)
(0.999486 0.00114986 0)
(0.999414 0.00116522 0)
(0.999369 0.0011765 0)
(0.999337 0.00118573 0)
(0.999288 0.00119285 0)
(0.99922 0.00119364 0)
(0.999157 0.00118469 0)
(0.999113 0.00116803 0)
(0.999068 0.00114841 0)
(0.999001 0.00112686 0)
(0.998928 0.00110208 0)
(0.998869 0.00107808 0)
(0.998811 0.00106264 0)
(0.99873 0.00105848 0)
(0.998631 0.00106334 0)
(0.998535 0.001077 0)
(0.99844 0.00110022 0)
(0.998338 0.00112868 0)
(0.998234 0.00115523 0)
(0.998135 0.00117554 0)
(0.998035 0.00118726 0)
(0.997934 0.00118787 0)
(0.997836 0.0011774 0)
(0.99774 0.00116061 0)
(0.997643 0.00114482 0)
(0.99754 0.00113681 0)
(0.99743 0.00113995 0)
(0.997312 0.0011521 0)
(0.997194 0.00116651 0)
(0.997077 0.00117563 0)
(0.996958 0.0011753 0)
(0.996832 0.00116694 0)
(0.996703 0.00115646 0)
(0.996577 0.00114963 0)
(0.996452 0.00114784 0)
(0.99632 0.00114905 0)
(0.99618 0.0011515 0)
(0.996035 0.00115476 0)
(0.995887 0.00115744 0)
(0.995737 0.00115722 0)
(0.995582 0.00115449 0)
(0.995422 0.00115293 0)
(0.995257 0.00115514 0)
(0.995091 0.001159 0)
(0.994924 0.0011597 0)
(0.994752 0.00115589 0)
(0.994572 0.0011519 0)
(0.994387 0.00115312 0)
(0.994201 0.00115931 0)
(0.994016 0.0011634 0)
(0.993829 0.00115861 0)
(0.993637 0.0011466 0)
(0.993437 0.0011377 0)
(0.993233 0.0011408 0)
(0.993032 0.001153 0)
(0.992836 0.00116072 0)
(0.992643 0.00115132 0)
(0.992448 0.00112426 0)
(0.992249 0.0010926 0)
(0.992049 0.00107385 0)
(0.991856 0.00107702 0)
(0.991678 0.00109473 0)
(0.99152 0.00110542 0)
(0.991381 0.00108289 0)
(0.991268 0.00100726 0)
(0.991197 0.00087339 0)
(0.991188 0.000693731 0)
(0.991264 0.000492781 0)
(0.991432 0.000296567 0)
(0.991691 0.000129485 0)
(0.992034 1.78295e-05 0)
(0.992443 -5.55723e-05 0)
(0.992884 -9.73923e-05 0)
(0.993326 -0.000114616 0)
(0.993741 -0.000114068 0)
(0.99411 -0.000102955 0)
(0.994421 -8.68645e-05 0)
(0.994672 -6.96633e-05 0)
(0.994866 -5.36965e-05 0)
(0.995011 -4.0101e-05 0)
(0.995114 -2.92e-05 0)
(0.995185 -2.08438e-05 0)
(0.995233 -1.46564e-05 0)
(0.995263 -1.01962e-05 0)
(0.995283 -7.04657e-06 0)
(0.995295 -4.85645e-06 0)
(0.995302 -3.34696e-06 0)
(0.995305 -2.31458e-06 0)
(0.995308 -1.61002e-06 0)
(0.995309 -1.1338e-06 0)
(0.995309 -8.13309e-07 0)
(0.995309 -5.94163e-07 0)
(0.995309 -4.43789e-07 0)
(0.995308 -3.39213e-07 0)
(0.995308 -2.57481e-07 0)
(0.995307 -2.01703e-07 0)
(0.995307 -1.50875e-07 0)
(0.995307 -1.23632e-07 0)
(0.995306 -8.39693e-08 0)
(0.995306 -7.75014e-08 0)
(0.995305 -3.74917e-08 0)
(0.995305 -5.34616e-08 0)
(0.995304 -1.05865e-09 0)
(0.995305 -4.71162e-08 0)
(0.995303 3.32281e-08 0)
(0.995305 -5.71918e-08 0)
(0.995302 7.13811e-08 0)
(0.995305 -8.46735e-08 0)
(0.995301 1.21372e-07 0)
(0.995306 -1.36451e-07 0)
(0.995299 1.87961e-07 0)
(0.995308 -2.07755e-07 0)
(0.995296 2.70414e-07 0)
(0.995311 -2.94067e-07 0)
(0.995293 3.53562e-07 0)
(0.995314 -3.67812e-07 0)
(0.995288 4.04758e-07 0)
(0.995319 -3.86649e-07 0)
(0.995284 3.71264e-07 0)
(0.995323 -2.92193e-07 0)
(0.995279 2.01024e-07 0)
(0.995327 -4.12332e-08 0)
(0.995276 -1.41086e-07 0)
(0.99533 3.92462e-07 0)
(0.995274 -6.39253e-07 0)
(0.995331 8.89774e-07 0)
(0.995273 -1.07036e-06 0)
(0.99533 1.16877e-06 0)
(0.995274 -1.12217e-06 0)
(0.99533 9.39135e-07 0)
(0.995275 -6.18221e-07 0)
(0.995329 2.04818e-07 0)
(0.995275 2.71862e-07 0)
(0.995329 -7.04881e-07 0)
(0.995275 9.89875e-07 0)
(0.995329 -1.03709e-06 0)
(0.995274 8.30277e-07 0)
(0.99533 -4.23921e-07 0)
(0.995274 -6.18535e-08 0)
(0.99533 5.32462e-07 0)
(0.995273 -8.03834e-07 0)
(0.995331 7.77514e-07 0)
(0.995273 -4.61356e-07 0)
(0.995332 2.35105e-11 0)
(0.995272 4.95913e-07 0)
(0.995332 -7.89589e-07 0)
(0.995271 7.91448e-07 0)
(0.995333 -5.11227e-07 0)
(0.99527 1.18547e-07 0)
(0.995334 2.52629e-07 0)
(0.995269 -4.6415e-07 0)
(0.995335 4.52563e-07 0)
(0.995269 -1.71699e-07 0)
(0.995334 -2.35168e-07 0)
(0.99527 7.52179e-07 0)
(0.995333 -1.07174e-06 0)
(0.99527 1.2394e-06 0)
(0.995332 -9.07417e-07 0)
(0.995269 6.60699e-07 0)
(0.995332 -2.06358e-07 0)
(0.995265 7.48278e-07 0)
(0.995328 -8.97749e-07 0)
(0.99526 2.08221e-06 0)
(0.995318 -1.3831e-06 0)
(0.995249 2.37527e-06 0)
(0.995298 -8.13112e-07 0)
(0.995222 4.8233e-06 0)
(1.0009 0.000274244 0)
(1.00052 0.000252079 0)
(1.00008 0.000270544 0)
(0.999675 0.000325968 0)
(0.999384 0.000407884 0)
(0.999222 0.00050534 0)
(0.999184 0.000605891 0)
(0.999243 0.000697098 0)
(0.999361 0.000769324 0)
(0.999506 0.000817514 0)
(0.999654 0.000842342 0)
(0.999799 0.000847944 0)
(0.999938 0.000840149 0)
(1.00007 0.000825081 0)
(1.00017 0.000808575 0)
(1.00024 0.000796316 0)
(1.00026 0.000792143 0)
(1.00024 0.000796485 0)
(1.0002 0.000806704 0)
(1.00019 0.000819691 0)
(1.00022 0.000833043 0)
(1.00027 0.000845873 0)
(1.00032 0.000858222 0)
(1.00034 0.000867474 0)
(1.00034 0.00087014 0)
(1.00035 0.000866704 0)
(1.00039 0.000861541 0)
(1.00045 0.000859693 0)
(1.00052 0.000863058 0)
(1.00056 0.000869421 0)
(1.00057 0.000875475 0)
(1.00056 0.000880715 0)
(1.00057 0.000887258 0)
(1.00059 0.000895244 0)
(1.00063 0.000901851 0)
(1.00067 0.000905387 0)
(1.00069 0.000907103 0)
(1.00071 0.000908312 0)
(1.00072 0.00090845 0)
(1.00077 0.000906948 0)
(1.00082 0.000904481 0)
(1.00086 0.000901912 0)
(1.00087 0.000899574 0)
(1.00087 0.000896941 0)
(1.00088 0.00089348 0)
(1.00091 0.000890081 0)
(1.00094 0.000888707 0)
(1.00096 0.000890223 0)
(1.00097 0.000894182 0)
(1.00097 0.000900248 0)
(1.001 0.000908411 0)
(1.00104 0.000919783 0)
(1.00107 0.000935424 0)
(1.00107 0.00095278 0)
(1.00108 0.000967167 0)
(1.00112 0.000976883 0)
(1.00118 0.000983193 0)
(1.00123 0.000986464 0)
(1.00125 0.000984377 0)
(1.00127 0.000974432 0)
(1.00131 0.000958258 0)
(1.00135 0.000940678 0)
(1.00136 0.000923427 0)
(1.00135 0.000905431 0)
(1.00137 0.000890001 0)
(1.00138 0.000884034 0)
(1.00138 0.000889301 0)
(1.00136 0.000902245 0)
(1.00136 0.000921065 0)
(1.00138 0.000945239 0)
(1.00139 0.000970479 0)
(1.00142 0.000990501 0)
(1.00145 0.00100203 0)
(1.00149 0.00100455 0)
(1.00152 0.000998038 0)
(1.00155 0.000984436 0)
(1.00158 0.00096912 0)
(1.00161 0.00095908 0)
(1.00163 0.00095968 0)
(1.00165 0.000971391 0)
(1.00167 0.000988957 0)
(1.0017 0.00100382 0)
(1.00174 0.00100902 0)
(1.00178 0.00100314 0)
(1.00181 0.000990878 0)
(1.00183 0.000980359 0)
(1.00186 0.00097716 0)
(1.00189 0.000980861 0)
(1.00192 0.000987263 0)
(1.00194 0.000993055 0)
(1.00197 0.000997357 0)
(1.002 0.000999778 0)
(1.00203 0.000999922 0)
(1.00205 0.000998918 0)
(1.00208 0.000999539 0)
(1.00211 0.00100289 0)
(1.00213 0.00100676 0)
(1.00216 0.00100809 0)
(1.00219 0.00100681 0)
(1.00222 0.00100629 0)
(1.00224 0.00100914 0)
(1.00227 0.00101351 0)
(1.0023 0.00101449 0)
(1.00234 0.00100967 0)
(1.00236 0.0010028 0)
(1.00239 0.00100046 0)
(1.00242 0.00100507 0)
(1.00246 0.00101121 0)
(1.00251 0.00100935 0)
(1.00255 0.000994145 0)
(1.00259 0.00096966 0)
(1.00262 0.000947506 0)
(1.00265 0.000938803 0)
(1.0027 0.000944603 0)
(1.00278 0.00095201 0)
(1.00287 0.000939681 0)
(1.00298 0.000887767 0)
(1.00309 0.000785609 0)
(1.00318 0.000635593 0)
(1.00323 0.000452119 0)
(1.00325 0.000256184 0)
(1.00323 6.99453e-05 0)
(1.0032 -8.75722e-05 0)
(1.00316 -0.000206005 0)
(1.0031 -0.000284676 0)
(1.00305 -0.000320535 0)
(1.003 -0.000320481 0)
(1.00296 -0.000294864 0)
(1.00292 -0.000254034 0)
(1.0029 -0.000207 0)
(1.00288 -0.000160596 0)
(1.00287 -0.000119198 0)
(1.00286 -8.49481e-05 0)
(1.00286 -5.82998e-05 0)
(1.00285 -3.86304e-05 0)
(1.00285 -2.4773e-05 0)
(1.00285 -1.54103e-05 0)
(1.00284 -9.32178e-06 0)
(1.00284 -5.49762e-06 0)
(1.00284 -3.16696e-06 0)
(1.00284 -1.789e-06 0)
(1.00284 -9.80274e-07 0)
(1.00284 -5.16085e-07 0)
(1.00284 -2.41854e-07 0)
(1.00283 -7.61495e-08 0)
(1.00283 3.49693e-08 0)
(1.00283 1.07677e-07 0)
(1.00283 1.53206e-07 0)
(1.00283 1.80157e-07 0)
(1.00283 1.93244e-07 0)
(1.00283 1.9786e-07 0)
(1.00283 1.97186e-07 0)
(1.00283 1.91766e-07 0)
(1.00283 1.85413e-07 0)
(1.00283 1.74107e-07 0)
(1.00282 1.67473e-07 0)
(1.00282 1.50681e-07 0)
(1.00282 1.4922e-07 0)
(1.00282 1.23206e-07 0)
(1.00282 1.35723e-07 0)
(1.00282 9.101e-08 0)
(1.00282 1.33033e-07 0)
(1.00283 4.54048e-08 0)
(1.00282 1.46255e-07 0)
(1.00283 -1.51376e-08 0)
(1.00282 1.79308e-07 0)
(1.00283 -8.90823e-08 0)
(1.00281 2.35335e-07 0)
(1.00283 -1.77788e-07 0)
(1.00281 3.02009e-07 0)
(1.00284 -2.56075e-07 0)
(1.0028 3.35859e-07 0)
(1.00284 -2.6135e-07 0)
(1.0028 2.67899e-07 0)
(1.00285 -1.32446e-07 0)
(1.00279 4.43816e-08 0)
(1.00285 1.82389e-07 0)
(1.00279 -3.81889e-07 0)
(1.00285 6.49476e-07 0)
(1.00279 -8.49506e-07 0)
(1.00285 1.02474e-06 0)
(1.00279 -1.05036e-06 0)
(1.00285 9.49866e-07 0)
(1.00279 -6.62763e-07 0)
(1.00285 2.61518e-07 0)
(1.0028 2.05842e-07 0)
(1.00285 -6.83553e-07 0)
(1.0028 1.04309e-06 0)
(1.00285 -1.15733e-06 0)
(1.00279 9.96205e-07 0)
(1.00285 -5.76445e-07 0)
(1.00279 4.90857e-08 0)
(1.00285 4.77355e-07 0)
(1.00279 -7.99334e-07 0)
(1.00285 8.09329e-07 0)
(1.00279 -4.84832e-07 0)
(1.00285 -6.47194e-09 0)
(1.00279 5.36746e-07 0)
(1.00285 -8.9478e-07 0)
(1.00279 9.70969e-07 0)
(1.00285 -7.37406e-07 0)
(1.00279 3.66093e-07 0)
(1.00285 2.12129e-08 0)
(1.00279 -2.19664e-07 0)
(1.00285 2.26784e-07 0)
(1.00279 2.55125e-08 0)
(1.00285 -3.62956e-07 0)
(1.00279 8.69801e-07 0)
(1.00285 -1.1996e-06 0)
(1.00279 1.48951e-06 0)
(1.00285 -1.2101e-06 0)
(1.00279 9.98141e-07 0)
(1.00285 -3.33822e-07 0)
(1.00279 7.13465e-07 0)
(1.00284 -6.71181e-07 0)
(1.00278 1.89329e-06 0)
(1.00283 -1.05289e-06 0)
(1.00277 2.02446e-06 0)
(1.00282 1.25301e-07 0)
(1.00274 3.94604e-06 0)
(1.00087 0.000274605 0)
(1.00053 0.000248095 0)
(1.00014 0.000260562 0)
(0.999777 0.000311508 0)
(0.999514 0.000392708 0)
(0.999366 0.000493321 0)
(0.999326 0.000601353 0)
(0.999368 0.000704524 0)
(0.999461 0.000792927 0)
(0.999575 0.000860348 0)
(0.999695 0.000905003 0)
(0.999816 0.000929376 0)
(0.999939 0.000938284 0)
(1.00006 0.000936685 0)
(1.00016 0.000929364 0)
(1.00024 0.000920749 0)
(1.00026 0.000914959 0)
(1.00025 0.000914497 0)
(1.00022 0.000919574 0)
(1.00021 0.000929248 0)
(1.00024 0.000941644 0)
(1.00029 0.00095598 0)
(1.00034 0.000972333 0)
(1.00036 0.000988508 0)
(1.00035 0.00100009 0)
(1.00035 0.00100337 0)
(1.00039 0.000999777 0)
(1.00046 0.000995129 0)
(1.00053 0.000994262 0)
(1.00057 0.000997856 0)
(1.00058 0.0010025 0)
(1.00058 0.00100583 0)
(1.00058 0.00101011 0)
(1.00061 0.00101743 0)
(1.00064 0.00102617 0)
(1.00068 0.0010332 0)
(1.0007 0.00103656 0)
(1.00071 0.00103642 0)
(1.00073 0.00103431 0)
(1.00077 0.00103229 0)
(1.00083 0.00103166 0)
(1.00087 0.00103121 0)
(1.00088 0.00102953 0)
(1.00088 0.00102796 0)
(1.00089 0.00102778 0)
(1.00092 0.00102776 0)
(1.00096 0.00102735 0)
(1.00098 0.00102739 0)
(1.00099 0.00102881 0)
(1.001 0.00103239 0)
(1.00103 0.00103787 0)
(1.00108 0.00104518 0)
(1.00111 0.00105544 0)
(1.00111 0.00106763 0)
(1.00112 0.00107841 0)
(1.00116 0.00108593 0)
(1.00122 0.00109048 0)
(1.00126 0.00109293 0)
(1.00128 0.00109343 0)
(1.00131 0.00109047 0)
(1.00135 0.00108272 0)
(1.00138 0.00107227 0)
(1.00139 0.00106194 0)
(1.00139 0.00105127 0)
(1.00141 0.00104026 0)
(1.00144 0.00103323 0)
(1.00144 0.00103374 0)
(1.00144 0.00103996 0)
(1.00144 0.00104896 0)
(1.00147 0.00106066 0)
(1.00149 0.00107452 0)
(1.00152 0.00108759 0)
(1.00156 0.00109755 0)
(1.0016 0.00110354 0)
(1.00164 0.00110451 0)
(1.00167 0.0011005 0)
(1.0017 0.00109419 0)
(1.00173 0.001089 0)
(1.00175 0.00108679 0)
(1.00178 0.00108795 0)
(1.0018 0.0010918 0)
(1.00184 0.00109645 0)
(1.00188 0.00109963 0)
(1.00193 0.00110012 0)
(1.00197 0.0010982 0)
(1.002 0.00109525 0)
(1.00203 0.00109293 0)
(1.00206 0.00109235 0)
(1.00209 0.00109339 0)
(1.00213 0.00109528 0)
(1.00216 0.00109736 0)
(1.0022 0.00109902 0)
(1.00224 0.00109992 0)
(1.00228 0.00110035 0)
(1.00231 0.00110109 0)
(1.00235 0.00110244 0)
(1.00238 0.00110381 0)
(1.00242 0.00110435 0)
(1.00246 0.00110405 0)
(1.0025 0.00110368 0)
(1.00254 0.00110397 0)
(1.00258 0.00110455 0)
(1.00262 0.00110405 0)
(1.00267 0.00110147 0)
(1.00271 0.00109732 0)
(1.00276 0.00109345 0)
(1.0028 0.00109091 0)
(1.00284 0.00108841 0)
(1.0029 0.00108285 0)
(1.00296 0.00107204 0)
(1.00302 0.00105697 0)
(1.00308 0.00104088 0)
(1.00313 0.00102588 0)
(1.00319 0.00101133 0)
(1.00326 0.000993328 0)
(1.00335 0.000964016 0)
(1.00345 0.00091314 0)
(1.00357 0.000831899 0)
(1.00367 0.000718224 0)
(1.00375 0.000579767 0)
(1.00379 0.000431444 0)
(1.00377 0.00028984 0)
(1.00371 0.000164893 0)
(1.00361 5.62382e-05 0)
(1.0035 -1.49706e-05 0)
(1.00339 -5.80769e-05 0)
(1.00329 -7.97968e-05 0)
(1.0032 -8.60259e-05 0)
(1.00314 -8.22428e-05 0)
(1.00309 -7.27829e-05 0)
(1.00306 -6.09102e-05 0)
(1.00304 -4.88122e-05 0)
(1.00303 -3.77493e-05 0)
(1.00302 -2.83153e-05 0)
(1.00302 -2.06672e-05 0)
(1.00302 -1.4701e-05 0)
(1.00303 -1.01845e-05 0)
(1.00303 -6.85092e-06 0)
(1.00303 -4.44414e-06 0)
(1.00303 -2.73169e-06 0)
(1.00303 -1.52955e-06 0)
(1.00303 -6.84359e-07 0)
(1.00303 -1.24845e-07 0)
(1.00303 2.24593e-07 0)
(1.00302 4.16964e-07 0)
(1.00302 5.27923e-07 0)
(1.00302 5.82513e-07 0)
(1.00302 6.04182e-07 0)
(1.00302 5.99065e-07 0)
(1.00302 5.85927e-07 0)