/*--------------------------------*- C++ -*----------------------------------*\
| =========                 |                                                 |
| \\      /  F ield         | OpenFOAM: The Open Source CFD Toolbox           |
|  \\    /   O peration     | Version:  v1906                                 |
|   \\  /    A nd           | Web:      www.OpenFOAM.com                      |
|    \\/     M anipulation  |                                                 |
\*---------------------------------------------------------------------------*/
FoamFile
{
    version     2.0;
    format      ascii;
    class       volScalarField;
    location    "0.15";
    object      p;
}
// * * * * * * * * * * * * * * * * * * * * * * * * * * * * * * * * * * * * * //

dimensions      [0 2 -2 0 0 0 0];


internalField   nonuniform List<scalar> 
800
(
1.26477e-08
0.00929696
0.0221156
0.034955
0.0487178
0.0633288
0.0790819
0.0963311
0.115581
0.13754
0.163201
0.193968
0.231809
0.279639
0.34206
0.423468
0.526034
0.695223
1.06925
1.22229
-0.00628479
0.00136401
0.0132736
0.0253524
0.0383507
0.0520756
0.0667482
0.0826281
0.100087
0.119622
0.141889
0.167713
0.198064
0.233981
0.276617
0.324889
0.36848
0.403349
0.453115
0.274227
-0.0179578
-0.0128441
-0.00246488
0.00832344
0.0199718
0.0321471
0.044929
0.0584118
0.0727285
0.0880108
0.104327
0.121564
0.13917
0.155705
0.168262
0.170518
0.148465
0.0855699
-0.0305378
-0.279993
-0.0314314
-0.0283088
-0.0194032
-0.00994399
0.000252041
0.0107402
0.0214431
0.0322727
0.0431
0.0536676
0.0634639
0.0715262
0.0761284
0.0743467
0.0616203
0.0310575
-0.0271714
-0.122701
-0.264288
-0.473535
-0.0466428
-0.0449266
-0.0374094
-0.029305
-0.0206571
-0.012
-0.00357192
0.00435057
0.0113764
0.0168866
0.0198876
0.018823
0.0113535
-0.00583218
-0.0370399
-0.0873972
-0.162121
-0.264522
-0.395943
-0.557288
-0.0641136
-0.0634009
-0.0572534
-0.0505767
-0.0436214
-0.0369934
-0.0310866
-0.0263593
-0.0234371
-0.0232264
-0.0270371
-0.0366963
-0.0546102
-0.0836957
-0.127094
-0.187659
-0.267111
-0.36493
-0.478155
-0.60138
-0.0840926
-0.0840524
-0.0792582
-0.0740813
-0.0689549
-0.0645363
-0.0613545
-0.0600198
-0.06133
-0.0663593
-0.0765238
-0.0935946
-0.119613
-0.156658
-0.206453
-0.269856
-0.346321
-0.433493
-0.52735
-0.622554
-0.106703
-0.107043
-0.103565
-0.0999417
-0.096748
-0.0946685
-0.0943295
-0.0964403
-0.101882
-0.111754
-0.127373
-0.150198
-0.181664
-0.2229
-0.274396
-0.335678
-0.405115
-0.479954
-0.556677
-0.631491
-0.132049
-0.132533
-0.130314
-0.128278
-0.12708
-0.127404
-0.12992
-0.135368
-0.144613
-0.158643
-0.17852
-0.205255
-0.239624
-0.281941
-0.331854
-0.388222
-0.449154
-0.512212
-0.574784
-0.634441
-0.160218
-0.16067
-0.159635
-0.159194
-0.160004
-0.162713
-0.167976
-0.176489
-0.189006
-0.206305
-0.229109
-0.257957
-0.29306
-0.334161
-0.38046
-0.43063
-0.482954
-0.535545
-0.586619
-0.634694
-0.191254
-0.191554
-0.191612
-0.192739
-0.195509
-0.200495
-0.208275
-0.21943
-0.234537
-0.254108
-0.278519
-0.307902
-0.342061
-0.380422
-0.422037
-0.465676
-0.50996
-0.553543
-0.595268
-0.634257
-0.225144
-0.225223
-0.226266
-0.228897
-0.233515
-0.240578
-0.250534
-0.263798
-0.28073
-0.301577
-0.326409
-0.355062
-0.387105
-0.421844
-0.45838
-0.495698
-0.532779
-0.568713
-0.602778
-0.634467
-0.261809
-0.261633
-0.263542
-0.267573
-0.273873
-0.282739
-0.294451
-0.309234
-0.327226
-0.34844
-0.37272
-0.399723
-0.428922
-0.459644
-0.49113
-0.522607
-0.553368
-0.582824
-0.610544
-0.636248
-0.301085
-0.300645
-0.303301
-0.308604
-0.316379
-0.326732
-0.339752
-0.355468
-0.373824
-0.39465
-0.417651
-0.442406
-0.468393
-0.495034
-0.521739
-0.54796
-0.573231
-0.597191
-0.619598
-0.640312
-0.342695
-0.342005
-0.345312
-0.351761
-0.360806
-0.37233
-0.386234
-0.402366
-0.420513
-0.44039
-0.461633
-0.483818
-0.506488
-0.529184
-0.551482
-0.57302
-0.593512
-0.61276
-0.630645
-0.647117
-0.386204
-0.385292
-0.389208
-0.396738
-0.406912
-0.41937
-0.433831
-0.449992
-0.467529
-0.486095
-0.505324
-0.52484
-0.544282
-0.563321
-0.581674
-0.599123
-0.61551
-0.63074
-0.644773
-0.657611
-0.43095
-0.429834
-0.434396
-0.443044
-0.454335
-0.46765
-0.482541
-0.498577
-0.515354
-0.532495
-0.549651
-0.566514
-0.582823
-0.598374
-0.613019
-0.626668
-0.639277
-0.650844
-0.661395
-0.670982
-0.476117
-0.475014
-0.480461
-0.490404
-0.502891
-0.517059
-0.532346
-0.54826
-0.564376
-0.580338
-0.595849
-0.610669
-0.624614
-0.637554
-0.649414
-0.660164
-0.669815
-0.67841
-0.686013
-0.692696
-0.520737
-0.521089
-0.52875
-0.540946
-0.555249
-0.570579
-0.586272
-0.601788
-0.616703
-0.630717
-0.643636
-0.655357
-0.665852
-0.675152
-0.683326
-0.690469
-0.696688
-0.702089
-0.706778
-0.71087
-0.558724
-0.562702
-0.574659
-0.591103
-0.609442
-0.628527
-0.647645
-0.666175
-0.683602
-0.699533
-0.713705
-0.725974
-0.736297
-0.744722
-0.751364
-0.756381
-0.759962
-0.76231
-0.763627
-0.76404
-1.2645
-2.32161
-2.27832
-2.05045
-1.85507
-1.70174
-1.58241
-1.48817
-1.41161
-1.34777
-1.29346
-1.24652
-1.20544
-1.16915
-1.13692
-1.10828
-1.08317
-1.06166
-1.04588
-1.03402
-0.874901
-1.54775
-1.72148
-1.71937
-1.66242
-1.58619
-1.50939
-1.43944
-1.37757
-1.32316
-1.27521
-1.23276
-1.19497
-1.1612
-1.13097
-1.10398
-1.08031
-1.06002
-1.04523
-1.03384
-0.775389
-1.17425
-1.38384
-1.47139
-1.48986
-1.46898
-1.42967
-1.38418
-1.3383
-1.29459
-1.25401
-1.21679
-1.18284
-1.15198
-1.12403
-1.09892
-1.07682
-1.05786
-1.04417
-1.03337
-0.754109
-1.01434
-1.19461
-1.29904
-1.34867
-1.3608
-1.34964
-1.32559
-1.29532
-1.26277
-1.23019
-1.19878
-1.16914
-1.14154
-1.11614
-1.09307
-1.07267
-1.05511
-1.04257
-1.03256
-0.74021
-0.917939
-1.06243
-1.16434
-1.22789
-1.26042
-1.27
-1.26403
-1.24831
-1.227
-1.20294
-1.17794
-1.15315
-1.12928
-1.10679
-1.08606
-1.06756
-1.05157
-1.04031
-1.03131
-0.728468
-0.854317
-0.967867
-1.05951
-1.12648
-1.17002
-1.19366
-1.20181
-1.19872
-1.18801
-1.17247
-1.15421
-1.1347
-1.11496
-1.09575
-1.07765
-1.06128
-1.04703
-1.03721
-1.02944
-0.71631
-0.809979
-0.899745
-0.978801
-1.04297
-1.09075
-1.12279
-1.14108
-1.14821
-1.14685
-1.13939
-1.12785
-1.11381
-1.0985
-1.08286
-1.06765
-1.05362
-1.04129
-1.03307
-1.02671
-0.703673
-0.776208
-0.848212
-0.915365
-0.974033
-1.02192
-1.05817
-1.08313
-1.09801
-1.10445
-1.10425
-1.09911
-1.09054
-1.07979
-1.06792
-1.05581
-1.04431
-1.03407
-1.02759
-1.02276
-0.691484
-0.749116
-0.807645
-0.864416
-0.91672
-0.962343
-0.999849
-1.02866
-1.04898
-1.06157
-1.06758
-1.06827
-1.06492
-1.05871
-1.0507
-1.04184
-1.03301
-1.02498
-1.02039
-1.01708
-0.680511
-0.72705
-0.775079
-0.822977
-0.868859
-0.910911
-0.947644
-0.978071
-1.00177
-1.01885
-1.02985
-1.03558
-1.03701
-1.03514
-1.03094
-1.02535
-1.01927
-1.01354
-1.01092
-1.00901
-0.671392
-0.709301
-0.748896
-0.789191
-0.828924
-0.866732
-0.90132
-0.931618
-0.9569
-0.976846
-0.991522
-1.00132
-1.00687
-1.00893
-1.00833
-1.00591
-1.00255
-0.999124
-0.998464
-0.997676
-0.664661
-0.695617
-0.728243
-0.761949
-0.795914
-0.82917
-0.860694
-0.889518
-0.914839
-0.93611
-0.953085
-0.965814
-0.974607
-0.979969
-0.982533
-0.983021
-0.982193
-0.980951
-0.982122
-0.981978
-0.660749
-0.68595
-0.712687
-0.740613
-0.769208
-0.797813
-0.825673
-0.851999
-0.87605
-0.897215
-0.91508
-0.929465
-0.940423
-0.94822
-0.953283
-0.956168
-0.957499
-0.958139
-0.960817
-0.960643
-0.660048
-0.680383
-0.702047
-0.724841
-0.748443
-0.77242
-0.796239
-0.819305
-0.841004
-0.860767
-0.878136
-0.892808
-0.904668
-0.913789
-0.920412
-0.924919
-0.927773
-0.929761
-0.933375
-0.932291
-0.662793
-0.678948
-0.696187
-0.714393
-0.733366
-0.752821
-0.772396
-0.791661
-0.810146
-0.82738
-0.842943
-0.856505
-0.867871
-0.876992
-0.883967
-0.889024
-0.892466
-0.894979
-0.89867
-0.895598
-0.669759
-0.682225
-0.695491
-0.709488
-0.724086
-0.739099
-0.754282
-0.769332
-0.783906
-0.797645
-0.810204
-0.821292
-0.830707
-0.838352
-0.844249
-0.848515
-0.851323
-0.853251
-0.855885
-0.849613
-0.680026
-0.689278
-0.699066
-0.709317
-0.719923
-0.73074
-0.741582
-0.752227
-0.762426
-0.771919
-0.780458
-0.787832
-0.793893
-0.798572
-0.80188
-0.803884
-0.804669
-0.804716
-0.804979
-0.794259
-0.69876
-0.704737
-0.710874
-0.717128
-0.723415
-0.729632
-0.735648
-0.74131
-0.74645
-0.750888
-0.754457
-0.75702
-0.75849
-0.758838
-0.758094
-0.756307
-0.753515
-0.750128
-0.746415
-0.729837
-0.714644
-0.718385
-0.722089
-0.725624
-0.728861
-0.731651
-0.733823
-0.735197
-0.735593
-0.734852
-0.732849
-0.72952
-0.724873
-0.719
-0.712058
-0.704211
-0.695601
-0.686661
-0.67691
-0.653059
-0.763543
-0.762179
-0.760056
-0.757147
-0.753327
-0.748469
-0.742464
-0.735219
-0.726669
-0.716787
-0.705611
-0.693255
-0.679933
-0.665949
-0.65168
-0.637495
-0.6237
-0.610423
-0.595305
-0.565598
)
;

boundaryField
{
    zeroGradient_plane
    {
        type            zeroGradient;
    }
    inlet
    {
        type            zeroGradient;
    }
    plate
    {
        type            zeroGradient;
    }
    frontAndBack
    {
        type            empty;
    }
}


// ************************************************************************* //
