/*--------------------------------*- C++ -*----------------------------------*\
| =========                 |                                                 |
| \\      /  F ield         | OpenFOAM: The Open Source CFD Toolbox           |
|  \\    /   O peration     | Version:  v1906                                 |
|   \\  /    A nd           | Web:      www.OpenFOAM.com                      |
|    \\/     M anipulation  |                                                 |
\*---------------------------------------------------------------------------*/
FoamFile
{
    version     2.0;
    format      ascii;
    class       surfaceScalarField;
    location    "0.15";
    object      phi;
}
// * * * * * * * * * * * * * * * * * * * * * * * * * * * * * * * * * * * * * //

dimensions      [0 3 -1 0 0 0 0];
oriented        oriented;


internalField   nonuniform List<scalar> 
1540
(
1.9783e-05
2.46453e-06
1.96337e-05
7.62746e-06
1.9481e-05
1.20628e-05
1.93305e-05
1.57767e-05
1.91836e-05
1.88733e-05
1.90398e-05
2.14651e-05
1.88985e-05
2.3649e-05
1.87584e-05
2.54987e-05
1.86178e-05
2.70619e-05
1.84747e-05
2.83585e-05
1.8326e-05
2.9382e-05
1.81675e-05
3.01004e-05
1.79931e-05
3.04605e-05
1.77931e-05
3.03909e-05
1.75517e-05
2.9805e-05
1.72461e-05
2.85997e-05
1.68315e-05
2.66642e-05
1.61749e-05
2.38901e-05
1.49796e-05
2.00552e-05
1.44633e-05
1.31316e-05
2.15359e-05
2.58839e-06
2.13751e-05
7.7883e-06
2.121e-05
1.2228e-05
2.10481e-05
1.59386e-05
2.08906e-05
1.90308e-05
2.07374e-05
2.16183e-05
2.0588e-05
2.37984e-05
2.04415e-05
2.56452e-05
2.0297e-05
2.72063e-05
2.01535e-05
2.85021e-05
2.00097e-05
2.95257e-05
1.98644e-05
3.02458e-05
1.97159e-05
3.06089e-05
1.95632e-05
3.05437e-05
1.94044e-05
2.99637e-05
1.92362e-05
2.87679e-05
1.90569e-05
2.68436e-05
1.88658e-05
2.40811e-05
1.85911e-05
2.03298e-05
1.53143e-05
1.77401e-05
2.3448e-05
2.7149e-06
2.32773e-05
7.95896e-06
2.31015e-05
1.24038e-05
2.293e-05
1.61101e-05
2.27647e-05
1.91962e-05
2.26061e-05
2.17769e-05
2.24543e-05
2.39501e-05
2.23099e-05
2.57896e-05
2.21737e-05
2.73426e-05
2.20475e-05
2.86283e-05
2.19344e-05
2.96388e-05
2.18395e-05
3.03407e-05
2.17708e-05
3.06776e-05
2.17402e-05
3.05743e-05
2.17632e-05
2.99408e-05
2.18545e-05
2.86766e-05
2.20154e-05
2.66827e-05
2.22048e-05
2.38917e-05
2.22524e-05
2.02823e-05
1.59308e-05
2.16359e-05
2.55331e-05
2.84025e-06
2.53558e-05
8.13627e-06
2.5172e-05
1.25876e-05
2.49942e-05
1.62879e-05
2.48255e-05
1.93648e-05
2.46675e-05
2.19348e-05
2.45219e-05
2.40957e-05
2.43912e-05
2.59203e-05
2.42795e-05
2.74543e-05
2.41931e-05
2.87147e-05
2.41413e-05
2.96906e-05
2.41373e-05
3.03447e-05
2.41986e-05
3.06163e-05
2.43461e-05
3.04268e-05
2.45989e-05
2.96879e-05
2.4962e-05
2.83135e-05
2.54021e-05
2.62426e-05
2.58182e-05
2.34755e-05
2.59981e-05
2.01024e-05
1.63431e-05
2.55858e-05
2.78062e-05
2.96068e-06
2.76268e-05
8.31564e-06
2.74397e-05
1.27747e-05
2.72608e-05
1.64668e-05
2.70953e-05
1.95303e-05
2.69465e-05
2.20836e-05
2.68184e-05
2.42239e-05
2.67165e-05
2.60222e-05
2.66493e-05
2.75215e-05
2.66286e-05
2.87354e-05
2.66703e-05
2.96489e-05
2.67945e-05
3.02205e-05
2.70236e-05
3.03872e-05
2.73775e-05
3.00729e-05
2.78638e-05
2.92017e-05
2.84604e-05
2.77169e-05
2.90962e-05
2.56069e-05
2.96384e-05
2.29332e-05
2.98948e-05
1.9846e-05
1.65846e-05
2.96533e-05
3.02836e-05
3.0724e-06
3.01081e-05
8.49106e-06
2.99245e-05
1.29583e-05
2.9752e-05
1.66393e-05
2.95988e-05
1.96835e-05
2.94705e-05
2.22118e-05
2.93743e-05
2.43202e-05
2.93195e-05
2.6077e-05
2.93194e-05
2.75216e-05
2.93913e-05
2.86635e-05
2.95563e-05
2.94839e-05
2.98374e-05
2.99394e-05
3.02548e-05
2.99697e-05
3.08179e-05
2.95098e-05
3.1513e-05
2.85066e-05
3.22898e-05
2.69401e-05
3.30526e-05
2.48441e-05
3.36664e-05
2.23194e-05
3.39819e-05
1.95305e-05
1.66837e-05
3.38827e-05
3.29829e-05
3.17169e-06
3.28189e-05
8.65505e-06
3.26477e-05
1.31296e-05
3.24919e-05
1.67951e-05
3.23628e-05
1.98126e-05
3.22694e-05
2.23052e-05
3.22222e-05
2.43674e-05
3.22349e-05
2.60643e-05
3.23253e-05
2.74312e-05
3.25146e-05
2.84741e-05
3.28259e-05
2.91726e-05
3.32798e-05
2.94855e-05
3.38876e-05
2.9362e-05
3.46419e-05
2.87555e-05
3.55067e-05
2.76417e-05
3.64113e-05
2.60355e-05
3.7253e-05
2.40024e-05
3.79142e-05
2.16582e-05
3.82901e-05
1.91546e-05
1.66528e-05
3.8321e-05
3.59233e-05
3.25494e-06
3.57797e-05
8.79872e-06
3.56322e-05
1.3277e-05
3.55061e-05
1.69212e-05
3.54161e-05
1.99026e-05
3.53744e-05
2.23469e-05
3.53953e-05
2.43465e-05
3.54964e-05
2.59632e-05
3.56988e-05
2.72289e-05
3.60249e-05
2.8148e-05
3.64957e-05
2.87018e-05
3.71242e-05
2.8857e-05
3.79085e-05
2.85777e-05
3.88233e-05
2.78406e-05
3.98157e-05
2.66493e-05
4.08059e-05
2.50454e-05
4.16981e-05
2.31102e-05
4.23992e-05
2.09571e-05
4.28401e-05
1.87137e-05
1.65009e-05
4.2992e-05
3.91257e-05
3.31873e-06
3.90125e-05
8.91198e-06
3.89024e-05
1.33871e-05
3.88217e-05
1.70019e-05
3.8788e-05
1.99364e-05
3.88168e-05
2.23181e-05
3.89257e-05
2.42376e-05
3.91349e-05
2.5754e-05
3.94663e-05
2.68974e-05
3.99408e-05
2.76735e-05
4.05729e-05
2.80697e-05
4.13651e-05
2.80648e-05
4.23011e-05
2.76418e-05
4.33412e-05
2.68005e-05
4.44231e-05
2.55674e-05
4.54685e-05
2.4e-05
4.63955e-05
2.21832e-05
4.71348e-05
2.02178e-05
4.76424e-05
1.82061e-05
1.62377e-05
4.79056e-05
4.26128e-05
3.35975e-06
4.25409e-05
8.9838e-06
4.24837e-05
1.34444e-05
4.24662e-05
1.70193e-05
4.2508e-05
1.98946e-05
4.2627e-05
2.21991e-05
4.28427e-05
2.40219e-05
4.31761e-05
2.54206e-05
4.36474e-05
2.6426e-05
4.42726e-05
2.70484e-05
4.50574e-05
2.72848e-05
4.59927e-05
2.71295e-05
4.70498e-05
2.65847e-05
4.81805e-05
2.56698e-05
4.93207e-05
2.44272e-05
5.04e-05
2.29208e-05
5.13525e-05
2.12306e-05
5.21285e-05
1.94418e-05
5.27004e-05
1.76342e-05
1.58742e-05
5.3064e-05
4.64092e-05
3.37485e-06
4.63904e-05
9.00261e-06
4.64025e-05
1.34323e-05
4.64675e-05
1.69542e-05
4.66047e-05
1.97575e-05
4.68328e-05
2.19711e-05
4.71714e-05
2.36833e-05
4.764e-05
2.4952e-05
4.82546e-05
2.58114e-05
4.90239e-05
2.62791e-05
4.99441e-05
2.63645e-05
5.09958e-05
2.60778e-05
5.21423e-05
2.54382e-05
5.33322e-05
2.44799e-05
5.45057e-05
2.32536e-05
5.56032e-05
2.18233e-05
5.6574e-05
2.02598e-05
5.73829e-05
1.86328e-05
5.80131e-05
1.70041e-05
1.54229e-05
5.84644e-05
5.05421e-05
3.36092e-06
5.0588e-05
8.95669e-06
5.06865e-05
1.33338e-05
5.08534e-05
1.67873e-05
5.11051e-05
1.95057e-05
5.14589e-05
2.16173e-05
5.19322e-05
2.321e-05
5.25406e-05
2.43437e-05
5.3294e-05
2.50579e-05
5.41931e-05
2.538e-05
5.52256e-05
2.53321e-05
5.63646e-05
2.49388e-05
5.75698e-05
2.4233e-05
5.87918e-05
2.32579e-05
5.99782e-05
2.20672e-05
6.10809e-05
2.07206e-05
6.2062e-05
1.92787e-05
6.28971e-05
1.77977e-05
6.35758e-05
1.63253e-05
1.48985e-05
6.41002e-05
5.50408e-05
3.3149e-06
5.5163e-05
8.83448e-06
5.53645e-05
1.31323e-05
5.56517e-05
1.65001e-05
5.6035e-05
1.91225e-05
5.65273e-05
2.1125e-05
5.71415e-05
2.25958e-05
5.78875e-05
2.35977e-05
5.87683e-05
2.41771e-05
5.97772e-05
2.43711e-05
6.08953e-05
2.42139e-05
6.20922e-05
2.3742e-05
6.3328e-05
2.29971e-05
6.45585e-05
2.20275e-05
6.57402e-05
2.08856e-05
6.68356e-05
1.96251e-05
6.78172e-05
1.82972e-05
6.86682e-05
1.69467e-05
6.93826e-05
1.56109e-05
1.43179e-05
6.99632e-05
5.99376e-05
3.23348e-06
6.01475e-05
8.62464e-06
6.04679e-05
1.28119e-05
6.08916e-05
1.60764e-05
6.14199e-05
1.85942e-05
6.20585e-05
2.04864e-05
6.28137e-05
2.18405e-05
6.36887e-05
2.27227e-05
6.46799e-05
2.31859e-05
6.57746e-05
2.32764e-05
6.69506e-05
2.3038e-05
6.8177e-05
2.25155e-05
6.94177e-05
2.17564e-05
7.06354e-05
2.08098e-05
7.17956e-05
1.97254e-05
7.28704e-05
1.85504e-05
7.38399e-05
1.73276e-05
7.46933e-05
1.60934e-05
7.54273e-05
1.48769e-05
1.37001e-05
7.60451e-05
6.52683e-05
3.11255e-06
6.55777e-05
8.31528e-06
6.6032e-05
1.23576e-05
6.66062e-05
1.55021e-05
6.72888e-05
1.79116e-05
6.80761e-05
1.96992e-05
6.89665e-05
2.09501e-05
6.99564e-05
2.17328e-05
7.10365e-05
2.21058e-05
7.21909e-05
2.2122e-05
7.33966e-05
2.18323e-05
7.46254e-05
2.12868e-05
7.58467e-05
2.0535e-05
7.7031e-05
1.96255e-05
7.81524e-05
1.8604e-05
7.91908e-05
1.7512e-05
8.01329e-05
1.63855e-05
8.09719e-05
1.52544e-05
8.17065e-05
1.41423e-05
1.30665e-05
8.23401e-05
7.1073e-05
2.94588e-06
7.14962e-05
7.89205e-06
7.21001e-05
1.17537e-05
7.28368e-05
1.47654e-05
7.36793e-05
1.70691e-05
7.46128e-05
1.87657e-05
7.56275e-05
1.99355e-05
7.67136e-05
2.06467e-05
7.78584e-05
2.09609e-05
7.9045e-05
2.09354e-05
8.02523e-05
2.0625e-05
8.14569e-05
2.00822e-05
8.2635e-05
1.93569e-05
8.37647e-05
1.84957e-05
8.48281e-05
1.75406e-05
8.58116e-05
1.65284e-05
8.67071e-05
1.549e-05
8.75109e-05
1.44506e-05
8.82236e-05
1.34296e-05
1.24416e-05
8.88485e-05
7.73979e-05
2.7223e-06
7.79554e-05
7.33454e-06
7.87271e-05
1.0982e-05
7.96378e-05
1.38548e-05
8.06432e-05
1.60637e-05
8.1717e-05
1.76919e-05
8.28418e-05
1.88107e-05
8.40031e-05
1.94854e-05
8.51866e-05
1.97774e-05
8.63768e-05
1.97453e-05
8.75565e-05
1.94453e-05
8.87086e-05
1.893e-05
8.9817e-05
1.82486e-05
9.08674e-05
1.74453e-05
9.18492e-05
1.65589e-05
9.27549e-05
1.56227e-05
9.35806e-05
1.46643e-05
9.43256e-05
1.37056e-05
9.49916e-05
1.27636e-05
1.18508e-05
9.55824e-05
8.43016e-05
2.4171e-06
8.50239e-05
6.61224e-06
8.59849e-05
1.00211e-05
8.70796e-05
1.276e-05
8.82478e-05
1.48955e-05
8.94532e-05
1.64865e-05
9.06725e-05
1.75914e-05
9.18887e-05
1.82692e-05
9.30877e-05
1.85783e-05
9.42571e-05
1.8576e-05
9.53849e-05
1.83174e-05
9.64606e-05
1.78543e-05
9.74753e-05
1.7234e-05
9.8422e-05
1.64985e-05
9.92964e-05
1.56845e-05
0.000100096
1.48228e-05
0.000100822
1.39386e-05
0.000101476
1.30521e-05
0.00010206
1.21787e-05
1.13301e-05
0.000102581
9.18657e-05
1.97299e-06
9.27929e-05
5.68506e-06
9.39625e-05
8.85144e-06
9.52464e-05
1.14762e-05
9.65722e-05
1.35697e-05
9.78963e-05
1.51624e-05
9.91907e-05
1.62971e-05
0.000100437
1.70229e-05
0.000101623
1.73921e-05
0.000102741
1.74578e-05
0.000103787
1.72721e-05
0.000104756
1.68844e-05
0.00010565
1.63402e-05
0.000106469
1.568e-05
0.000107214
1.49391e-05
0.00010789
1.41475e-05
0.000108499
1.33295e-05
0.000109046
1.25049e-05
0.000109536
1.16887e-05
1.08927e-05
0.000109973
0.000100136
0.000101296
0.000102679
0.000104158
0.000105655
0.000107118
0.000108515
0.000109821
0.000111024
0.000112117
0.000113098
0.000113972
0.000114743
0.00011542
0.000116011
0.000116526
0.000116974
0.000117363
0.000117701
0.000117995
6.61159e-06
6.52004e-06
3.66241e-06
2.94918e-06
2.3311e-06
1.33132e-06
1.68008e-06
6.51019e-07
1.32026e-06
3.59814e-07
1.09328e-06
2.26989e-07
9.3395e-07
1.59325e-07
8.1407e-07
1.19881e-07
7.19899e-07
9.4171e-08
6.43792e-07
7.61062e-08
5.81072e-07
6.27202e-08
5.28739e-07
5.23335e-08
4.84861e-07
4.38777e-08
4.48261e-07
3.65995e-08
4.18353e-07
2.99084e-08
3.95058e-07
2.32948e-08
3.78672e-07
1.63866e-08
3.69736e-07
8.93606e-09
3.67082e-07
2.65362e-09
-1.94207e-09
1.41002e-05
1.016e-05
1.05268e-05
6.52257e-06
7.86146e-06
3.99668e-06
6.04332e-06
2.46915e-06
4.81977e-06
1.58337e-06
3.97489e-06
1.07187e-06
3.36656e-06
7.67648e-07
2.90979e-06
5.76658e-07
2.55442e-06
4.49539e-07
2.27016e-06
3.60369e-07
2.03803e-06
2.94847e-07
1.84582e-06
2.4454e-07
1.68562e-06
2.04085e-07
1.55244e-06
1.69775e-07
1.44356e-06
1.3879e-07
1.35804e-06
1.08819e-07
1.29634e-06
7.80846e-08
1.25922e-06
4.60513e-08
1.24427e-06
1.76049e-08
-3.63553e-10
1.95087e-05
1.22872e-05
1.65589e-05
9.47239e-06
1.36381e-05
6.91742e-06
1.11658e-05
4.94143e-06
9.21962e-06
3.5296e-06
7.72881e-06
2.56268e-06
6.58731e-06
1.90914e-06
5.70118e-06
1.46279e-06
5.00015e-06
1.15056e-06
4.43506e-06
9.25467e-07
3.97219e-06
7.57711e-07
3.58863e-06
6.28106e-07
3.2689e-06
5.23807e-07
3.00299e-06
4.35689e-07
2.78502e-06
3.56758e-07
2.61251e-06
2.81329e-07
2.48563e-06
2.04966e-07
2.40495e-06
1.26729e-07
2.367e-06
5.55583e-08
1.17102e-08
2.42173e-05
1.36557e-05
2.19677e-05
1.1722e-05
1.93045e-05
9.58069e-06
1.66614e-05
7.58447e-06
1.42879e-05
5.90315e-06
1.2274e-05
4.57655e-06
1.06134e-05
3.56971e-06
9.25776e-06
2.81847e-06
8.14976e-06
2.25856e-06
7.23823e-06
1.837e-06
6.48225e-06
1.51369e-06
5.85099e-06
1.25937e-06
5.32218e-06
1.05261e-06
4.8806e-06
8.77273e-07
4.51686e-06
7.20497e-07
4.22652e-06
5.71662e-07
4.00912e-06
4.2237e-07
3.86503e-06
2.70823e-07
3.78955e-06
1.31037e-07
4.28166e-08
2.87399e-05
1.45691e-05
2.70763e-05
1.33857e-05
2.48466e-05
1.18104e-05
2.23446e-05
1.00864e-05
1.98345e-05
8.4133e-06
1.7494e-05
6.91703e-06
1.54117e-05
5.65203e-06
1.36099e-05
4.62027e-06
1.20733e-05
3.79515e-06
1.07706e-05
3.13966e-06
9.66759e-06
2.61671e-06
8.7333e-06
2.19365e-06
7.94273e-06
1.84319e-06
7.27736e-06
1.54264e-06
6.72512e-06
1.27273e-06
6.27993e-06
1.01685e-06
5.94077e-06
7.61531e-07
5.70814e-06
5.03459e-07
5.57641e-06
2.62766e-07
1.04449e-07
3.32885e-05
1.51633e-05
3.20929e-05
1.45813e-05
3.03248e-05
1.35785e-05
2.81327e-05
1.22785e-05
2.57151e-05
1.08309e-05
2.32595e-05
9.3726e-06
2.09072e-05
8.00433e-06
1.87436e-05
6.7839e-06
1.68067e-05
5.73202e-06
1.51024e-05
4.84394e-06
1.36186e-05
4.10056e-06
1.23356e-05
3.47662e-06
1.12332e-05
2.94554e-06
1.02943e-05
2.48157e-06
9.50668e-06
2.06036e-06
8.86417e-06
1.65936e-06
8.36618e-06
1.25952e-06
8.01423e-06
8.55406e-07
7.80275e-06
4.74248e-07
2.11766e-07
3.79735e-05
1.55108e-05
3.71518e-05
1.5403e-05
3.58133e-05
1.49169e-05
3.40021e-05
1.40898e-05
3.18313e-05
1.30018e-05
2.94483e-05
1.17556e-05
2.69991e-05
1.04535e-05
2.46035e-05
9.17942e-06
2.2345e-05
7.99056e-06
2.02717e-05
6.9172e-06
1.84049e-05
5.96744e-06
1.67477e-05
5.13374e-06
1.52945e-05
4.39879e-06
1.40363e-05
3.73973e-06
1.2966e-05
3.1307e-06
1.20805e-05
2.54492e-06
1.13817e-05
1.95826e-06
1.08742e-05
1.3629e-06
1.05543e-05
7.94111e-07
3.84336e-07
4.28478e-05
1.5655e-05
4.23323e-05
1.59185e-05
4.13756e-05
1.58736e-05
3.99595e-05
1.55058e-05
3.81239e-05
1.48374e-05
3.59574e-05
1.39222e-05
3.35764e-05
1.28345e-05
3.1102e-05
1.16538e-05
2.8641e-05
1.04515e-05
2.62761e-05
9.28209e-06
2.40637e-05
8.17989e-06
2.20375e-05
7.15996e-06
2.0215e-05
6.22128e-06
1.86042e-05
5.35053e-06
1.72094e-05
4.5255e-06
1.60357e-05
3.71855e-06
1.50919e-05
2.90215e-06
1.43882e-05
2.06656e-06
1.39263e-05
1.256e-06
6.46793e-07
4.79344e-05
1.56262e-05
4.76757e-05
1.61772e-05
4.70538e-05
1.64955e-05
4.60182e-05
1.65415e-05
4.45575e-05
1.62981e-05
4.27041e-05
1.57756e-05
4.05292e-05
1.50094e-05
3.81292e-05
1.40538e-05
3.56091e-05
1.29716e-05
3.3068e-05
1.18232e-05
3.05893e-05
1.06586e-05
2.82372e-05
9.51204e-06
2.60577e-05
8.4008e-06
2.40826e-05
7.3256e-06
2.23352e-05
6.27288e-06
2.08354e-05
5.21832e-06
1.96038e-05
4.13382e-06
1.86614e-05
3.00889e-06
1.80197e-05
1.89771e-06
1.02919e-06
5.32417e-05
1.54485e-05
5.32011e-05
1.62177e-05
5.28706e-05
1.68261e-05
5.21866e-05
1.72254e-05
5.11072e-05
1.73776e-05
4.96214e-05
1.72614e-05
4.77542e-05
1.68766e-05
4.55637e-05
1.62443e-05
4.31323e-05
1.5403e-05
4.05548e-05
1.44008e-05
3.79259e-05
1.32875e-05
3.53318e-05
1.21061e-05
3.28453e-05
1.08872e-05
3.05257e-05
9.64523e-06
2.84208e-05
8.37774e-06
2.6572e-05
7.06714e-06
2.50181e-05
5.68778e-06
2.37969e-05
4.2301e-06
2.29355e-05
2.75909e-06
1.56676e-06
5.8769e-05
1.51439e-05
5.89132e-05
1.60735e-05
5.88336e-05
1.69057e-05
5.84654e-05
1.75936e-05
5.77516e-05
1.80913e-05
5.6653e-05
1.836e-05
5.51565e-05
1.8373e-05
5.32802e-05
1.81207e-05
5.1072e-05
1.76112e-05
4.86045e-05
1.68682e-05
4.59658e-05
1.59262e-05
4.32495e-05
1.48225e-05
4.05464e-05
1.35902e-05
3.79403e-05
1.22514e-05
3.55055e-05
1.08125e-05
3.33094e-05
9.26325e-06
3.14151e-05
7.58209e-06
2.98835e-05
5.7617e-06
2.87642e-05
3.87835e-06
2.29854e-06
6.45101e-05
1.4734e-05
6.4808e-05
1.57756e-05
6.49404e-05
1.67732e-05
6.48476e-05
1.76864e-05
6.44687e-05
1.84703e-05
6.37494e-05
1.90792e-05
6.26508e-05
1.94717e-05
6.11564e-05
1.96151e-05
5.92778e-05
1.94898e-05
5.70551e-05
1.90909e-05
5.45539e-05
1.84273e-05
5.18587e-05
1.75178e-05
4.90644e-05
1.63845e-05
4.62697e-05
1.50462e-05
4.35715e-05
1.35107e-05
4.10635e-05
1.17712e-05
3.88366e-05
9.80903e-06
3.69798e-05
7.61849e-06
3.55717e-05
5.28644e-06
3.26463e-06
7.04558e-05
1.42414e-05
7.08766e-05
1.53548e-05
7.11823e-05
1.64676e-05
7.13211e-05
1.75476e-05
7.12354e-05
1.85559e-05
7.08665e-05
1.94481e-05
7.01609e-05
2.01773e-05
6.9078e-05
2.06979e-05
6.75979e-05
2.09699e-05
6.57263e-05
2.09625e-05
6.34974e-05
2.06562e-05
6.09722e-05
2.0043e-05
5.82341e-05
1.91226e-05
5.53826e-05
1.78976e-05
5.25271e-05
1.63662e-05
4.97819e-05
1.45164e-05
4.72643e-05
1.23266e-05
4.50933e-05
9.78953e-06
4.33801e-05
6.99956e-06
4.50141e-06
7.65966e-05
1.36899e-05
7.71087e-05
1.48426e-05
7.75479e-05
1.60285e-05
7.78715e-05
1.7224e-05
7.80293e-05
1.83981e-05
7.7965e-05
1.95124e-05
7.76207e-05
2.05216e-05
7.69426e-05
2.1376e-05
7.58884e-05
2.20242e-05
7.44342e-05
2.24166e-05
7.25813e-05
2.25091e-05
7.03595e-05
2.22649e-05
6.78274e-05
2.16547e-05
6.50703e-05
2.06547e-05
6.21954e-05
1.92411e-05
5.93263e-05
1.73855e-05
5.65988e-05
1.50541e-05
5.41579e-05
1.22304e-05
5.21466e-05
9.0109e-06
6.03487e-06
8.29248e-05
1.31053e-05
8.34954e-05
1.4272e-05
8.40266e-05
1.54972e-05
8.44854e-05
1.67651e-05
8.48304e-05
1.80532e-05
8.50122e-05
1.93306e-05
8.49758e-05
2.05581e-05
8.46635e-05
2.16883e-05
8.40212e-05
2.26665e-05
8.30046e-05
2.34332e-05
8.15871e-05
2.39266e-05
7.97665e-05
2.40855e-05
7.757e-05
2.38512e-05
7.50565e-05
2.31682e-05
7.23158e-05
2.19819e-05
6.94651e-05
2.02362e-05
6.66453e-05
1.78739e-05
6.40161e-05
1.48597e-05
6.17437e-05
1.12833e-05
7.87273e-06
8.9438e-05
1.25158e-05
9.00316e-05
1.36785e-05
9.06113e-05
1.49175e-05
9.11526e-05
1.62238e-05
9.16233e-05
1.75824e-05
9.19832e-05
1.89707e-05
9.21843e-05
2.0357e-05
9.21727e-05
2.16999e-05
9.18915e-05
2.29477e-05
9.12866e-05
2.40382e-05
9.03127e-05
2.49005e-05
8.89417e-05
2.54565e-05
8.71696e-05
2.56233e-05
8.50231e-05
2.53147e-05
8.25629e-05
2.44421e-05
7.98843e-05
2.29147e-05
7.71155e-05
2.06427e-05
7.44133e-05
1.75619e-05
7.1951e-05
1.37456e-05
9.99705e-06
9.61476e-05
1.19506e-05
9.67278e-05
1.30982e-05
9.73109e-05
1.43344e-05
9.78796e-05
1.56552e-05
9.84103e-05
1.70517e-05
9.88726e-05
1.85084e-05
9.9228e-05
2.00015e-05
9.94311e-05
2.14969e-05
9.94299e-05
2.29489e-05
9.91698e-05
2.42983e-05
9.8598e-05
2.54723e-05
9.76699e-05
2.63846e-05
9.63573e-05
2.69359e-05
9.46557e-05
2.70162e-05
9.25917e-05
2.65062e-05
9.02266e-05
2.52798e-05
8.76583e-05
2.32109e-05
8.50197e-05
2.02005e-05
8.24681e-05
1.62972e-05
1.23604e-05
0.000103083
1.14484e-05
0.000103606
1.25756e-05
0.000104142
1.37988e-05
0.000104679
1.51179e-05
0.000105202
1.65285e-05
0.000105689
1.8021e-05
0.000106113
1.95781e-05
0.000106437
2.11729e-05
0.000106619
2.27666e-05
0.000106611
2.43059e-05
0.000106363
2.57211e-05
0.000105823
2.69242e-05
0.00010495
2.78089e-05
0.000103716
2.82504e-05
0.000102114
2.81076e-05
0.000100168
2.72263e-05
9.79303e-05
2.54485e-05
9.54899e-05
2.26409e-05
9.29634e-05
1.88238e-05
1.4886e-05
0.000110395
1.10263e-05
0.000110834
1.21369e-05
0.000111285
1.33481e-05
0.000111741
1.46618e-05
0.000112193
1.60765e-05
0.000112628
1.75863e-05
0.000113027
1.91784e-05
0.000113369
2.08317e-05
0.000113622
2.25132e-05
0.000113752
2.4176e-05
0.000113717
2.5756e-05
0.000113472
2.71691e-05
0.000112972
2.83095e-05
0.000112174
2.90484e-05
0.000111045
2.92356e-05
0.000109569
2.87026e-05
0.000107745
2.72728e-05
0.000105598
2.47878e-05
0.00010319
2.12321e-05
1.74878e-05
0.000118279
0.00011858
0.0001189
0.000119235
0.000119581
0.000119933
0.00012028
0.000120609
0.0001209
0.000121127
0.000121259
0.000121254
0.000121066
0.000120644
0.000119933
0.000118879
0.000117425
0.000115522
0.000113122
)
;

boundaryField
{
    zeroGradient_plane
    {
        type            calculated;
        value           nonuniform List<scalar> 
80
(
1.33993e-06
4.52555e-06
7.46805e-06
9.99743e-06
1.2073e-05
1.36987e-05
1.49007e-05
1.57164e-05
1.61892e-05
1.6365e-05
1.62906e-05
1.6011e-05
1.5569e-05
1.50031e-05
1.43478e-05
1.36324e-05
1.28818e-05
1.21159e-05
1.13508e-05
1.05982e-05
1.07425e-05
1.18353e-05
1.30288e-05
1.43269e-05
1.573e-05
1.72345e-05
1.88311e-05
2.05028e-05
2.22222e-05
2.39486e-05
2.56249e-05
2.71742e-05
2.84972e-05
2.94704e-05
2.99463e-05
2.97572e-05
2.87269e-05
2.66904e-05
2.36317e-05
2.04626e-05
3.69024e-07
1.24269e-06
2.35492e-06
3.75844e-06
5.51478e-06
7.69543e-06
1.03818e-05
1.36639e-05
1.76373e-05
2.23979e-05
2.80324e-05
3.46056e-05
4.21434e-05
5.06131e-05
5.99059e-05
6.98267e-05
8.01047e-05
9.04378e-05
0.000100588
0.000110148
-2.34689e-06
-7.47815e-06
-1.19102e-05
-1.56262e-05
-1.87263e-05
-2.13214e-05
-2.35076e-05
-2.53586e-05
-2.69213e-05
-2.82154e-05
-2.92333e-05
-2.9942e-05
-3.02861e-05
-3.01908e-05
-2.95637e-05
-2.8294e-05
-2.62496e-05
-2.32335e-05
-1.88599e-05
-1.26153e-05
)
;
    }
    inlet
    {
        type            calculated;
        value           nonuniform List<scalar> 
20
(
-1.99006e-05
-2.16598e-05
-2.35745e-05
-2.56584e-05
-2.79266e-05
-3.03953e-05
-3.30822e-05
-3.60066e-05
-3.91895e-05
-4.26538e-05
-4.64243e-05
-5.05282e-05
-5.49948e-05
-5.98562e-05
-6.51474e-05
-7.09063e-05
-7.71743e-05
-8.39964e-05
-9.14216e-05
-9.95031e-05
)
;
    }
    plate
    {
        type            calculated;
        value           uniform 0;
    }
    frontAndBack
    {
        type            empty;
        value           nonuniform 0();
    }
}


// ************************************************************************* //
