/*--------------------------------*- C++ -*----------------------------------*\
| =========                 |                                                 |
| \\      /  F ield         | OpenFOAM: The Open Source CFD Toolbox           |
|  \\    /   O peration     | Version:  v1906                                 |
|   \\  /    A nd           | Web:      www.OpenFOAM.com                      |
|    \\/     M anipulation  |                                                 |
\*---------------------------------------------------------------------------*/
FoamFile
{
    version     2.0;
    format      ascii;
    class       volVectorField;
    location    "0.15";
    object      U;
}
// * * * * * * * * * * * * * * * * * * * * * * * * * * * * * * * * * * * * * //

dimensions      [0 1 -1 0 0 0 0];


internalField   nonuniform List<vector> 
800
(
(0.997865 0.0241152 0)
(0.990692 0.0825138 0)
(0.982873 0.142586 0)
(0.975251 0.203329 0)
(0.967763 0.265003 0)
(0.960462 0.32824 0)
(0.953307 0.393764 0)
(0.946247 0.462219 0)
(0.93921 0.534011 0)
(0.932104 0.609119 0)
(0.924804 0.686891 0)
(0.917137 0.765817 0)
(0.908846 0.843287 0)
(0.899553 0.91533 0)
(0.888767 0.976259 0)
(0.875463 1.01815 0)
(0.856472 1.0303 0)
(0.830036 0.997613 0)
(0.811616 0.89333 0)
(0.782978 0.664756 0)
(0.997957 0.0252268 0)
(0.990923 0.0840664 0)
(0.98316 0.144319 0)
(0.975609 0.205184 0)
(0.968218 0.266974 0)
(0.961046 0.330337 0)
(0.954064 0.396006 0)
(0.947238 0.464637 0)
(0.940527 0.536644 0)
(0.933887 0.612026 0)
(0.927265 0.690155 0)
(0.920603 0.76956 0)
(0.913836 0.847694 0)
(0.906895 0.920689 0)
(0.899792 0.983043 0)
(0.892513 1.02716 0)
(0.884187 1.04304 0)
(0.875184 1.01808 0)
(0.874022 0.9327 0)
(0.865006 0.749837 0)
(0.998135 0.026647 0)
(0.991395 0.0861065 0)
(0.983776 0.146602 0)
(0.976395 0.207618 0)
(0.969229 0.269547 0)
(0.962351 0.333051 0)
(0.95576 0.398874 0)
(0.949465 0.467675 0)
(0.943492 0.539871 0)
(0.937894 0.615457 0)
(0.932769 0.693801 0)
(0.928285 0.773416 0)
(0.92471 0.85172 0)
(0.922457 0.924779 0)
(0.922158 0.987002 0)
(0.924581 1.03074 0)
(0.92996 1.04608 0)
(0.938088 1.02138 0)
(0.948216 0.942902 0)
(0.943648 0.793976 0)
(0.998365 0.0279628 0)
(0.992069 0.0880814 0)
(0.984726 0.148822 0)
(0.977649 0.209967 0)
(0.970864 0.271996 0)
(0.964478 0.335586 0)
(0.958533 0.401478 0)
(0.953107 0.470317 0)
(0.948322 0.542494 0)
(0.944374 0.617956 0)
(0.941557 0.695994 0)
(0.940303 0.774997 0)
(0.941209 0.852197 0)
(0.94504 0.9234 0)
(0.952662 0.982751 0)
(0.96472 1.02258 0)
(0.980855 1.03368 0)
(0.998972 1.00676 0)
(1.01393 0.934553 0)
(1.01281 0.815397 0)
(0.99862 0.0291947 0)
(0.992903 0.0900305 0)
(0.986006 0.151028 0)
(0.9794 0.212279 0)
(0.973187 0.274356 0)
(0.96752 0.33795 0)
(0.962508 0.403785 0)
(0.958313 0.472466 0)
(0.955178 0.544316 0)
(0.953458 0.619183 0)
(0.953644 0.696205 0)
(0.956382 0.773559 0)
(0.962456 0.848217 0)
(0.972682 0.915744 0)
(0.987674 0.970252 0)
(1.00735 1.00465 0)
(1.03023 1.01154 0)
(1.05284 0.985027 0)
(1.06932 0.923007 0)
(1.07122 0.829786 0)
(0.998879 0.0303607 0)
(0.993863 0.0919772 0)
(0.987605 0.153245 0)
(0.981668 0.214569 0)
(0.976247 0.276623 0)
(0.971554 0.340103 0)
(0.967777 0.405699 0)
(0.965178 0.473943 0)
(0.964124 0.545051 0)
(0.965112 0.618713 0)
(0.968779 0.693862 0)
(0.975869 0.768437 0)
(0.987142 0.839201 0)
(1.00317 0.901687 0)
(1.02401 0.950402 0)
(1.04872 0.979437 0)
(1.07498 0.983611 0)
(1.09891 0.960045 0)
(1.11555 0.909628 0)
(1.11992 0.837862 0)
(0.999129 0.0314262 0)
(0.994913 0.0938522 0)
(0.989501 0.155384 0)
(0.984454 0.216728 0)
(0.980066 0.278652 0)
(0.976616 0.341852 0)
(0.974377 0.406956 0)
(0.973708 0.474395 0)
(0.97508 0.544234 0)
(0.979088 0.615971 0)
(0.986419 0.688322 0)
(0.997772 0.759039 0)
(1.01369 0.824832 0)
(1.03432 0.881493 0)
(1.05909 0.924311 0)
(1.08644 0.948837 0)
(1.1137 0.951926 0)
(1.13739 0.932786 0)
(1.15389 0.893575 0)
(1.16045 0.83924 0)
(0.999361 0.0323481 0)
(0.996023 0.0955559 0)
(0.991657 0.157313 0)
(0.987734 0.218593 0)
(0.98463 0.280243 0)
(0.982688 0.342941 0)
(0.982261 0.407235 0)
(0.983785 0.473421 0)
(0.987797 0.541391 0)
(0.994917 0.610447 0)
(1.00578 0.679129 0)
(1.0209 0.745117 0)
(1.0405 0.805277 0)
(1.06427 0.855925 0)
(1.09115 0.893348 0)
(1.11928 0.914522 0)
(1.14613 0.917862 0)
(1.16895 0.903755 0)
(1.18531 0.874604 0)
(1.19376 0.834337 0)
(0.999569 0.0330899 0)
(0.997162 0.0969813 0)
(0.994029 0.158878 0)
(0.991457 0.219974 0)
(0.989879 0.281162 0)
(0.989685 0.343091 0)
(0.991287 0.406201 0)
(0.995164 0.470641 0)
(1.00186 0.536128 0)
(1.01195 0.6018 0)
(1.02593 0.666108 0)
(1.04404 0.726809 0)
(1.06617 0.781115 0)
(1.09163 0.826035 0)
(1.11912 0.858876 0)
(1.14679 0.877794 0)
(1.17251 0.882237 0)
(1.19424 0.873114 0)
(1.21046 0.852595 0)
(1.22041 0.823633 0)
(0.999753 0.0336182 0)
(0.998306 0.0980125 0)
(0.996559 0.159906 0)
(0.995544 0.220651 0)
(0.995702 0.281152 0)
(0.997446 0.342001 0)
(1.00121 0.403526 0)
(1.00747 0.465725 0)
(1.01673 0.528165 0)
(1.02944 0.589884 0)
(1.04588 0.649353 0)
(1.06607 0.704546 0)
(1.08957 0.753154 0)
(1.1155 0.792919 0)
(1.1425 0.822044 0)
(1.16895 0.839552 0)
(1.19318 0.845487 0)
(1.21376 0.840887 0)
(1.22976 0.82754 0)
(1.24079 0.807618 0)
(0.999915 0.033901 0)
(0.999432 0.0985253 0)
(0.999186 0.160207 0)
(0.99989 0.220381 0)
(1.00194 0.27993 0)
(1.00574 0.339372 0)
(1.01169 0.398913 0)
(1.02023 0.458421 0)
(1.03175 0.517361 0)
(1.04657 0.57475 0)
(1.06474 0.629184 0)
(1.08606 0.678958 0)
(1.10992 0.722285 0)
(1.13535 0.757585 0)
(1.16114 0.783767 0)
(1.18593 0.800426 0)
(1.2085 0.8079 0)
(1.22789 0.807165 0)
(1.24351 0.799627 0)
(1.25521 0.786873 0)
(1.00006 0.0339069 0)
(1.00052 0.0983912 0)
(1.00184 0.159575 0)
(1.00437 0.218911 0)
(1.0084 0.277218 0)
(1.01426 0.334924 0)
(1.02232 0.392125 0)
(1.0329 0.448587 0)
(1.04628 0.503731 0)
(1.06259 0.556634 0)
(1.08173 0.606096 0)
(1.10333 0.650776 0)
(1.12672 0.689389 0)
(1.15098 0.720915 0)
(1.17507 0.744773 0)
(1.19798 0.760905 0)
(1.2188 0.769756 0)
(1.23693 0.772169 0)
(1.25199 0.769224 0)
(1.26393 0.762079 0)
(1.00019 0.0336052 0)
(1.00157 0.0974826 0)
(1.00446 0.15781 0)
(1.00885 0.215992 0)
(1.01485 0.272757 0)
(1.02271 0.328429 0)
(1.03267 0.383008 0)
(1.04495 0.436202 0)
(1.05969 0.487441 0)
(1.07687 0.535921 0)
(1.09627 0.580687 0)
(1.11744 0.620759 0)
(1.13973 0.655284 0)
(1.16236 0.683669 0)
(1.18449 0.705674 0)
(1.20538 0.721429 0)
(1.22441 0.731392 0)
(1.24117 0.73626 0)
(1.25547 0.736855 0)
(1.26726 0.73403 0)
(1.0003 0.0329644 0)
(1.00256 0.0956747 0)
(1.007 0.154718 0)
(1.01321 0.211398 0)
(1.02111 0.266329 0)
(1.03079 0.319726 0)
(1.04237 0.371512 0)
(1.05594 0.421369 0)
(1.07151 0.46878 0)
(1.08896 0.513094 0)
(1.10801 0.553603 0)
(1.12819 0.589648 0)
(1.14895 0.620715 0)
(1.16964 0.646515 0)
(1.18966 0.667019 0)
(1.20846 0.682451 0)
(1.22564 0.693237 0)
(1.24094 0.699941 0)
(1.25424 0.703191 0)
(1.26555 0.703622 0)
(1.00042 0.0319481 0)
(1.00352 0.0928412 0)
(1.00945 0.150113 0)
(1.01739 0.204932 0)
(1.02703 0.257772 0)
(1.03828 0.308739 0)
(1.05113 0.357689 0)
(1.06555 0.404302 0)
(1.08144 0.448138 0)
(1.09864 0.488702 0)
(1.11683 0.525507 0)
(1.13562 0.55815 0)
(1.15454 0.586368 0)
(1.17312 0.610074 0)
(1.19093 0.629363 0)
(1.2076 0.644492 0)
(1.22287 0.655843 0)
(1.23659 0.663871 0)
(1.2487 0.669061 0)
(1.25921 0.671892 0)
(1.00054 0.0305089 0)
(1.00448 0.0888468 0)
(1.01184 0.143819 0)
(1.02142 0.196425 0)
(1.03259 0.246979 0)
(1.04513 0.295463 0)
(1.05887 0.341675 0)
(1.07369 0.385299 0)
(1.08945 0.42597 0)
(1.10594 0.463326 0)
(1.12289 0.497057 0)
(1.13999 0.526946 0)
(1.15688 0.552898 0)
(1.17324 0.574953 0)
(1.18878 0.593272 0)
(1.20328 0.60812 0)
(1.21657 0.619831 0)
(1.22859 0.628779 0)
(1.2393 0.635347 0)
(1.24875 0.639908 0)
(1.00069 0.0285814 0)
(1.00552 0.0835516 0)
(1.01431 0.135691 0)
(1.02541 0.185781 0)
(1.03791 0.233937 0)
(1.05143 0.280001 0)
(1.0657 0.323703 0)
(1.08054 0.364727 0)
(1.09578 0.402766 0)
(1.1112 0.437557 0)
(1.12662 0.468911 0)
(1.14179 0.496734 0)
(1.15649 0.521033 0)
(1.17054 0.541914 0)
(1.18375 0.559566 0)
(1.19602 0.574241 0)
(1.20727 0.586234 0)
(1.21747 0.595855 0)
(1.22662 0.603416 0)
(1.23477 0.609216 0)
(1.00093 0.0259944 0)
(1.00686 0.0766898 0)
(1.01711 0.125534 0)
(1.02961 0.172944 0)
(1.04321 0.218758 0)
(1.05741 0.262639 0)
(1.0719 0.304224 0)
(1.08644 0.343169 0)
(1.10086 0.379188 0)
(1.115 0.412072 0)
(1.12872 0.441705 0)
(1.14188 0.468063 0)
(1.15436 0.491211 0)
(1.16607 0.511291 0)
(1.17694 0.528502 0)
(1.18693 0.543085 0)
(1.19603 0.555302 0)
(1.20425 0.565423 0)
(1.21162 0.573712 0)
(1.21821 0.580419 0)
(1.00139 0.0220141 0)
(1.0088 0.0670734 0)
(1.02056 0.112093 0)
(1.03428 0.15674 0)
(1.04872 0.200443 0)
(1.06331 0.242642 0)
(1.07769 0.282846 0)
(1.09164 0.320646 0)
(1.10499 0.355721 0)
(1.11763 0.38785 0)
(1.12949 0.416913 0)
(1.14054 0.442888 0)
(1.15075 0.465838 0)
(1.16013 0.485897 0)
(1.16869 0.503254 0)
(1.17647 0.518132 0)
(1.1835 0.53077 0)
(1.18982 0.541415 0)
(1.1955 0.550306 0)
(1.20057 0.557671 0)
(1.00203 0.015473 0)
(1.01107 0.0534936 0)
(1.02413 0.0941462 0)
(1.03885 0.135709 0)
(1.05399 0.17708 0)
(1.06897 0.217473 0)
(1.08342 0.256296 0)
(1.09707 0.293083 0)
(1.10973 0.327485 0)
(1.1213 0.359253 0)
(1.13175 0.38824 0)
(1.14109 0.414389 0)
(1.14936 0.437729 0)
(1.15664 0.458355 0)
(1.16301 0.476413 0)
(1.16856 0.49209 0)
(1.17339 0.505592 0)
(1.17759 0.517135 0)
(1.18123 0.526938 0)
(1.1844 0.535207 0)
(0.424193 0.2353 0)
(0.242453 0.0805893 0)
(0.141413 0.0268117 0)
(0.0952452 0.0093577 0)
(0.0726283 0.0037669 0)
(0.0591654 0.00189928 0)
(0.0500359 0.00118085 0)
(0.0433264 0.000829263 0)
(0.0381243 0.000616031 0)
(0.0339542 0.000470324 0)
(0.0305368 0.00036466 0)
(0.0276938 0.000285021 0)
(0.0253092 0.000222879 0)
(0.0233093 0.00017254 0)
(0.021652 0.000129955 0)
(0.0203236 9.20947e-05 0)
(0.0193272 5.72403e-05 0)
(0.0187085 2.39164e-05 0)
(0.018413 1.06631e-06 0)
(0.0185239 -1.50587e-05 0)
(0.733065 0.443972 0)
(0.562511 0.225081 0)
(0.413755 0.108322 0)
(0.311704 0.0536834 0)
(0.24461 0.028648 0)
(0.199021 0.0167989 0)
(0.166791 0.0107573 0)
(0.14303 0.00735889 0)
(0.124805 0.00526776 0)
(0.110378 0.00389029 0)
(0.0986829 0.00293536 0)
(0.0890422 0.00224522 0)
(0.0810139 0.00172707 0)
(0.0743143 0.00132258 0)
(0.0687733 0.000993005 0)
(0.0643145 0.000711621 0)
(0.0609231 0.000461642 0)
(0.0586926 0.000236157 0)
(0.0574856 6.74582e-05 0)
(0.0574793 -2.89707e-05 0)
(0.881049 0.576477 0)
(0.766752 0.37685 0)
(0.635428 0.232791 0)
(0.518809 0.141708 0)
(0.425737 0.0873989 0)
(0.354177 0.0557023 0)
(0.299615 0.0370061 0)
(0.257623 0.025591 0)
(0.224704 0.0183104 0)
(0.198378 0.0134611 0)
(0.176949 0.0101002 0)
(0.159262 0.00768399 0)
(0.144534 0.00588448 0)
(0.132244 0.00449407 0)
(0.122068 0.00337537 0)
(0.113842 0.00243503 0)
(0.107513 0.00161267 0)
(0.103192 0.000888418 0)
(0.100678 0.000326482 0)
(0.100198 2.32943e-05 0)
(0.978029 0.659941 0)
(0.904646 0.498114 0)
(0.804076 0.355935 0)
(0.697249 0.24626 0)
(0.598137 0.168196 0)
(0.512599 0.115299 0)
(0.441562 0.0802418 0)
(0.383528 0.0570076 0)
(0.33622 0.0413865 0)
(0.297449 0.0306476 0)
(0.265412 0.0230699 0)
(0.238727 0.0175715 0)
(0.21638 0.0134616 0)
(0.197658 0.0102875 0)
(0.182094 0.00774376 0)
(0.169433 0.00562076 0)
(0.159579 0.00378072 0)
(0.152645 0.00217758 0)
(0.148379 0.000910943 0)
(0.147046 0.000218075 0)
(1.05107 0.714608 0)
(1.00416 0.586907 0)
(0.931853 0.460392 0)
(0.844315 0.348749 0)
(0.752562 0.258153 0)
(0.664677 0.188931 0)
(0.585215 0.138086 0)
(0.515865 0.101519 0)
(0.4565 0.0753912 0)
(0.406125 0.056639 0)
(0.363483 0.0430163 0)
(0.327373 0.0329436 0)
(0.296786 0.0253282 0)
(0.270945 0.0194128 0)
(0.249308 0.0146666 0)
(0.231562 0.0107163 0)
(0.217579 0.00731129 0)
(0.207474 0.0043601 0)
(0.200975 0.00199935 0)
(0.19838 0.000655916 0)
(1.109 0.751047 0)
(1.07963 0.651295 0)
(1.02977 0.544585 0)
(0.962856 0.440963 0)
(0.885235 0.347953 0)
(0.803675 0.269545 0)
(0.723727 0.206529 0)
(0.649072 0.157551 0)
(0.581603 0.120261 0)
(0.521894 0.0921406 0)
(0.469729 0.0709414 0)
(0.424513 0.0548432 0)
(0.385548 0.0424471 0)
(0.352198 0.0327055 0)
(0.323973 0.0248416 0)
(0.300574 0.0182869 0)
(0.281887 0.0126488 0)
(0.268053 0.00776892 0)
(0.258811 0.00382248 0)
(0.254528 0.00146934 0)
(1.15602 0.773815 0)
(1.1387 0.6967 0)
(1.10576 0.6097 0)
(1.05726 0.519035 0)
(0.995843 0.430966 0)
(0.925747 0.350448 0)
(0.85165 0.280456 0)
(0.777688 0.222 0)
(0.706938 0.174604 0)
(0.641326 0.136927 0)
(0.581816 0.107291 0)
(0.528697 0.0840323 0)
(0.48187 0.0656763 0)
(0.441073 0.0509977 0)
(0.406037 0.0390155 0)
(0.376595 0.0289698 0)
(0.352724 0.0203139 0)
(0.334642 0.0128071 0)
(0.32215 0.00666636 0)
(0.315741 0.0028317 0)
(1.19413 0.785522 0)
(1.18536 0.726679 0)
(1.16501 0.657588 0)
(1.13174 0.581599 0)
(1.0859 0.502996 0)
(1.0294 0.426118 0)
(0.965288 0.354572 0)
(0.897004 0.290758 0)
(0.827812 0.235785 0)
(0.760369 0.189673 0)
(0.696582 0.1517 0)
(0.637654 0.12075 0)
(0.584241 0.0955787 0)
(0.536646 0.0749853 0)
(0.495002 0.057899 0)
(0.459417 0.0434236 0)
(0.430062 0.0308775 0)
(0.407317 0.0199384 0)
(0.391103 0.0108738 0)
(0.382137 0.00496477 0)
(1.22433 0.787909 0)
(1.22177 0.743835 0)
(1.21076 0.690323 0)
(1.18962 0.628856 0)
(1.15749 0.561923 0)
(1.11467 0.492635 0)
(1.06256 0.424202 0)
(1.00342 0.359419 0)
(0.939917 0.300319 0)
(0.874741 0.248037 0)
(0.810253 0.202883 0)
(0.748334 0.164529 0)
(0.690362 0.13224 0)
(0.63729 0.105078 0)
(0.589783 0.0820586 0)
(0.548358 0.0622576 0)
(0.513507 0.04492 0)
(0.485861 0.029668 0)
(0.465545 0.0168402 0)
(0.453628 0.00814452 0)
(1.24729 0.782278 0)
(1.2492 0.750137 0)
(1.24512 0.709844 0)
(1.23338 0.66177 0)
(1.21269 0.607067 0)
(1.18239 0.547601 0)
(1.14266 0.485713 0)
(1.09452 0.423881 0)
(1.0397 0.364363 0)
(0.980343 0.30892 0)
(0.918746 0.258671 0)
(0.857066 0.21409 0)
(0.797174 0.175103 0)
(0.740604 0.141236 0)
(0.688584 0.111779 0)
(0.64213 0.0859307 0)
(0.602154 0.0629639 0)
(0.569645 0.0425039 0)
(0.545004 0.0249992 0)
(0.529821 0.0127025 0)
(1.26346 0.769753 0)
(1.26854 0.747204 0)
(1.26949 0.717915 0)
(1.26487 0.68165 0)
(1.25334 0.638687 0)
(1.2338 0.589884 0)
(1.20567 0.536645 0)
(1.169 0.480769 0)
(1.12453 0.424215 0)
(1.07362 0.368848 0)
(1.01805 0.316207 0)
(0.959836 0.267362 0)
(0.900997 0.222871 0)
(0.84343 0.182817 0)
(0.788834 0.146908 0)
(0.738714 0.11462 0)
(0.69446 0.0853762 0)
(0.657486 0.0588939 0)
(0.628537 0.0357912 0)
(0.609909 0.0190194 0)
(1.27326 0.751414 0)
(1.28046 0.736497 0)
(1.28493 0.716203 0)
(1.28553 0.690006 0)
(1.28104 0.657674 0)
(1.27027 0.619364 0)
(1.25228 0.575686 0)
(1.22648 0.527683 0)
(1.19282 0.476741 0)
(1.15183 0.424426 0)
(1.10459 0.372283 0)
(1.05264 0.321652 0)
(0.997793 0.273529 0)
(0.941996 0.228496 0)
(0.887206 0.186729 0)
(0.835309 0.148082 0)
(0.788129 0.112249 0)
(0.747522 0.0791378 0)
(0.714601 0.0496134 0)
(0.692559 0.027505 0)
(1.27708 0.728361 0)
(1.28554 0.719431 0)
(1.29231 0.706345 0)
(1.29654 0.688484 0)
(1.29721 0.665361 0)
(1.29323 0.636707 0)
(1.28355 0.602556 0)
(1.2673 0.563298 0)
(1.24389 0.519681 0)
(1.21318 0.472757 0)
(1.17555 0.42376 0)
(1.13188 0.373962 0)
(1.08353 0.324509 0)
(1.03218 0.276297 0)
(0.979782 0.229893 0)
(0.928372 0.185542 0)
(0.880082 0.143276 0)
(0.837129 0.103281 0)
(0.800955 0.0667453 0)
(0.775811 0.0385604 0)
(1.27537 0.701753 0)
(1.28436 0.697433 0)
(1.29244 0.690001 0)
(1.29896 0.678852 0)
(1.30315 0.66341 0)
(1.3041 0.643188 0)
(1.30083 0.617862 0)
(1.29238 0.587341 0)
(1.27793 0.551817 0)
(1.25689 0.511783 0)
(1.22907 0.467995 0)
(1.19472 0.421398 0)
(1.1546 0.373005 0)
(1.10993 0.323769 0)
(1.06235 0.274467 0)
(1.01382 0.225644 0)
(0.96655 0.177657 0)
(0.922937 0.131006 0)
(0.884631 0.0872587 0)
(0.857046 0.0525203 0)
(1.26859 0.672852 0)
(1.27754 0.672005 0)
(1.28609 0.668903 0)
(1.29381 0.663007 0)
(1.30011 0.653749 0)
(1.30431 0.640564 0)
(1.30557 0.622947 0)
(1.30303 0.600505 0)
(1.2958 0.57302 0)
(1.28309 0.540498 0)
(1.26434 0.503194 0)
(1.23932 0.461596 0)
(1.20821 0.416376 0)
(1.17167 0.3683 0)
(1.13087 0.318127 0)
(1.08742 0.266524 0)
(1.04335 0.214076 0)
(1.00101 0.161559 0)
(0.962048 0.110929 0)
(0.933054 0.0695806 0)
(1.25733 0.642929 0)
(1.26573 0.644644 0)
(1.27407 0.644783 0)
(1.28206 0.64289 0)
(1.28931 0.638452 0)
(1.29529 0.630914 0)
(1.29938 0.619705 0)
(1.30085 0.604278 0)
(1.29891 0.584161 0)
(1.29275 0.559004 0)
(1.28164 0.528634 0)
(1.26506 0.493078 0)
(1.24274 0.452571 0)
(1.21485 0.407528 0)
(1.18199 0.358482 0)
(1.14529 0.306022 0)
(1.10637 0.250794 0)
(1.06725 0.193746 0)
(1.02932 0.137165 0)
(1.00028 0.0897031 0)
(1.24228 0.613714 0)
(1.24973 0.617272 0)
(1.25732 0.619761 0)
(1.26484 0.620809 0)
(1.27204 0.619976 0)
(1.27857 0.616757 0)
(1.28397 0.610592 0)
(1.28771 0.600888 0)
(1.28914 0.587044 0)
(1.28756 0.568495 0)
(1.28225 0.54476 0)
(1.27256 0.515483 0)
(1.258 0.480478 0)
(1.23834 0.439742 0)
(1.2137 0.393456 0)
(1.18466 0.341964 0)
(1.15229 0.285802 0)
(1.11805 0.225946 0)
(1.08284 0.164903 0)
(1.0553 0.112426 0)
(1.2243 0.586 0)
(1.23043 0.590913 0)
(1.23675 0.595137 0)
(1.24318 0.598364 0)
(1.24954 0.600219 0)
(1.25563 0.600257 0)
(1.26113 0.597956 0)
(1.26567 0.592727 0)
(1.26878 0.583926 0)
(1.26993 0.57088 0)
(1.2685 0.552921 0)
(1.26388 0.529432 0)
(1.25549 0.499894 0)
(1.24292 0.463938 0)
(1.22592 0.42138 0)
(1.2046 0.372254 0)
(1.17944 0.316882 0)
(1.15117 0.256138 0)
(1.12004 0.192595 0)
(1.09552 0.136847 0)
(1.20528 0.563975 0)
(1.21 0.569744 0)
(1.21488 0.575028 0)
(1.21987 0.579572 0)
(1.22486 0.583058 0)
(1.22975 0.5851 0)
(1.23436 0.585232 0)
(1.23847 0.582913 0)
(1.2418 0.577524 0)
(1.24398 0.568382 0)
(1.24458 0.554759 0)
(1.24313 0.535917 0)
(1.23912 0.511153 0)
(1.23206 0.479852 0)
(1.22151 0.441545 0)
(1.20721 0.395981 0)
(1.18908 0.343223 0)
(1.16704 0.283915 0)
(1.14068 0.220468 0)
(1.12017 0.163965 0)
(1.18729 0.542435 0)
(1.19023 0.549229 0)
(1.19336 0.555707 0)
(1.19665 0.56165 0)
(1.20009 0.566784 0)
(1.20362 0.570773 0)
(1.20717 0.573204 0)
(1.21061 0.573589 0)
(1.21377 0.571351 0)
(1.21644 0.565831 0)
(1.21831 0.556293 0)
(1.21903 0.541945 0)
(1.21815 0.521972 0)
(1.21517 0.495586 0)
(1.20955 0.462094 0)
(1.20073 0.42098 0)
(1.18816 0.372046 0)
(1.17099 0.315714 0)
(1.14842 0.254334 0)
(1.13128 0.199165 0)
)
;

boundaryField
{
    zeroGradient_plane
    {
        type            zeroGradient;
    }
    inlet
    {
        type            fixedValue;
        value           uniform (1 0 0);
    }
    plate
    {
        type            noSlip;
    }
    frontAndBack
    {
        type            empty;
    }
}


// ************************************************************************* //
