/*--------------------------------*- C++ -*----------------------------------*\
| =========                 |                                                 |
| \\      /  F ield         | OpenFOAM: The Open Source CFD Toolbox           |
|  \\    /   O peration     | Version:  v1906                                 |
|   \\  /    A nd           | Web:      www.OpenFOAM.com                      |
|    \\/     M anipulation  |                                                 |
\*---------------------------------------------------------------------------*/
FoamFile
{
    version     2.0;
    format      ascii;
    class       surfaceScalarField;
    location    "0.2";
    object      phi;
}
// * * * * * * * * * * * * * * * * * * * * * * * * * * * * * * * * * * * * * //

dimensions      [0 3 -1 0 0 0 0];
oriented        oriented;


internalField   nonuniform List<scalar> 
9340
(
1.99013e-05
2.79576e-09
1.99018e-05
-1.21971e-08
1.99012e-05
-5.14801e-09
1.99004e-05
8.24549e-09
1.98987e-05
1.98892e-08
1.98979e-05
1.74957e-08
1.98979e-05
4.37241e-09
1.98987e-05
-9.46265e-09
1.98996e-05
-1.83822e-08
1.99001e-05
-1.92217e-08
1.99e-05
-1.5018e-08
1.98994e-05
-8.15411e-09
1.98981e-05
-8.98842e-10
1.98953e-05
5.39027e-09
1.9891e-05
1.04517e-08
1.98856e-05
1.38501e-08
1.98798e-05
1.57495e-08
1.98742e-05
1.61449e-08
1.98696e-05
1.48962e-08
1.2918e-08
1.98664e-05
2.16611e-05
1.45423e-09
2.16577e-05
-8.73111e-09
2.16581e-05
-5.57512e-09
2.1658e-05
8.33441e-09
2.16609e-05
1.69855e-08
2.16632e-05
1.52315e-08
2.16633e-05
4.26883e-09
2.16614e-05
-7.53726e-09
2.16576e-05
-1.46616e-08
2.16534e-05
-1.49523e-08
2.16491e-05
-1.07848e-08
2.16456e-05
-4.57239e-09
2.16427e-05
1.98765e-09
2.16404e-05
7.63901e-09
2.16392e-05
1.16925e-08
2.16393e-05
1.37009e-08
2.16405e-05
1.46105e-08
2.16422e-05
1.44181e-08
2.16438e-05
1.33005e-08
1.18782e-08
2.16448e-05
2.35762e-05
-2.58692e-10
2.35721e-05
-4.61401e-09
2.3572e-05
-5.44495e-09
2.35731e-05
7.23972e-09
2.35758e-05
1.42644e-08
2.35785e-05
1.24673e-08
2.35786e-05
4.18406e-09
2.35764e-05
-5.32045e-09
2.35721e-05
-1.03687e-08
2.3567e-05
-9.86092e-09
2.35623e-05
-6.03867e-09
2.35588e-05
-1.10323e-09
2.35569e-05
3.92995e-09
2.35565e-05
7.96331e-09
2.35572e-05
1.10634e-08
2.35582e-05
1.27202e-08
2.35596e-05
1.32111e-08
2.35608e-05
1.31631e-08
2.35618e-05
1.22612e-08
1.10749e-08
2.35627e-05
2.56594e-05
-1.20874e-09
2.56569e-05
-2.14198e-09
2.5655e-05
-3.56002e-09
2.56583e-05
4.0248e-09
2.56599e-05
1.26172e-08
2.56609e-05
1.14976e-08
2.56608e-05
4.28526e-09
2.56586e-05
-3.16532e-09
2.56551e-05
-6.83663e-09
2.56511e-05
-5.87656e-09
2.56477e-05
-2.59608e-09
2.56452e-05
1.3959e-09
2.56439e-05
5.16704e-09
2.56434e-05
8.43356e-09
2.56436e-05
1.08863e-08
2.56441e-05
1.22663e-08
2.56448e-05
1.24778e-08
2.56459e-05
1.20825e-08
2.56469e-05
1.12433e-08
1.02763e-08
2.56477e-05
2.7927e-05
-1.59966e-09
2.7926e-05
-1.18521e-09
2.79226e-05
-1.27924e-10
2.79255e-05
1.16011e-09
2.79286e-05
9.52825e-09
2.79289e-05
1.11171e-08
2.79285e-05
4.78001e-09
2.79267e-05
-1.45679e-09
2.79234e-05
-3.51402e-09
2.79195e-05
-1.97283e-09
2.79163e-05
6.67256e-10
2.79141e-05
3.52126e-09
2.79131e-05
6.23485e-09
2.79129e-05
8.62734e-09
2.79133e-05
1.04836e-08
2.79141e-05
1.14356e-08
2.79152e-05
1.14049e-08
2.79164e-05
1.08295e-08
2.79174e-05
1.02262e-08
9.61294e-09
2.79181e-05
3.03948e-05
-1.12034e-09
3.03954e-05
-1.80102e-09
3.03923e-05
2.96999e-09
3.03931e-05
4.18488e-10
3.03972e-05
5.41986e-09
3.03973e-05
1.10046e-08
3.03953e-05
6.75876e-09
3.03938e-05
7.08579e-11
3.03917e-05
-1.48076e-09
3.03889e-05
8.34121e-10
3.03864e-05
3.22883e-09
3.03848e-05
5.07625e-09
3.03842e-05
6.86771e-09
3.03842e-05
8.64455e-09
3.03846e-05
1.00889e-08
3.03853e-05
1.07099e-08
3.03862e-05
1.05379e-08
3.03869e-05
1.00769e-08
3.03875e-05
9.61223e-09
9.18657e-09
3.03879e-05
3.30813e-05
-2.88103e-10
3.30823e-05
-2.78552e-09
3.30804e-05
4.88189e-09
3.3079e-05
1.87261e-09
3.30824e-05
1.95436e-09
3.30845e-05
8.93384e-09
3.30825e-05
8.70298e-09
3.30802e-05
2.46872e-09
3.30787e-05
-2.31642e-11
3.30768e-05
2.75092e-09
3.30745e-05
5.54371e-09
3.3073e-05
6.57923e-09
3.30725e-05
7.28963e-09
3.30728e-05
8.38375e-09
3.30734e-05
9.51388e-09
3.3074e-05
1.01092e-08
3.30746e-05
9.91817e-09
3.30752e-05
9.4663e-09
3.30758e-05
8.97295e-09
8.63601e-09
3.30764e-05
3.60057e-05
5.96499e-10
3.60061e-05
-3.21973e-09
3.60061e-05
4.90375e-09
3.60039e-05
4.0492e-09
3.60053e-05
5.92097e-10
3.6008e-05
6.19891e-09
3.60069e-05
9.80698e-09
3.6004e-05
5.38149e-09
3.60024e-05
1.60809e-09
3.60018e-05
3.33688e-09
3.60006e-05
6.70685e-09
3.59994e-05
7.82039e-09
3.5999e-05
7.71188e-09
3.59993e-05
8.09089e-09
3.59998e-05
9.00349e-09
3.60002e-05
9.64538e-09
3.60006e-05
9.56053e-09
3.60011e-05
9.00516e-09
3.60016e-05
8.47133e-09
8.12786e-09
3.60021e-05
3.9189e-05
1.14344e-09
3.91885e-05
-2.80865e-09
3.91895e-05
3.98945e-09
3.91877e-05
5.8337e-09
3.9187e-05
1.23593e-09
3.91895e-05
3.7747e-09
3.91902e-05
9.06451e-09
3.91879e-05
7.71594e-09
3.91857e-05
3.81364e-09
3.91851e-05
3.86219e-09
3.91849e-05
6.97133e-09
3.91841e-05
8.60346e-09
3.91834e-05
8.36937e-09
3.91835e-05
7.99272e-09
3.91841e-05
8.39987e-09
3.91848e-05
9.01547e-09
3.91852e-05
9.09875e-09
3.91856e-05
8.67048e-09
3.9186e-05
8.0726e-09
7.6717e-09
3.91864e-05
4.26536e-05
1.35589e-09
4.26524e-05
-1.67172e-09
4.26536e-05
2.78959e-09
4.26531e-05
6.38114e-09
4.26515e-05
2.84665e-09
4.26525e-05
2.76098e-09
4.26539e-05
7.64181e-09
4.26528e-05
8.87386e-09
4.26506e-05
5.9563e-09
4.26498e-05
4.68865e-09
4.26501e-05
6.6479e-09
4.26501e-05
8.61144e-09
4.26497e-05
8.74202e-09
4.26496e-05
8.11271e-09
4.265e-05
7.97484e-09
4.26507e-05
8.36446e-09
4.26512e-05
8.59528e-09
4.26515e-05
8.33305e-09
4.26518e-05
7.79157e-09
7.28967e-09
4.26522e-05
4.64244e-05
1.31289e-09
4.64231e-05
-4.50378e-10
4.64239e-05
2.07957e-09
4.64241e-05
6.12934e-09
4.64226e-05
4.34085e-09
4.64224e-05
3.00646e-09
4.64238e-05
6.23674e-09
4.64239e-05
8.69928e-09
4.64225e-05
7.40521e-09
4.64214e-05
5.80474e-09
4.64215e-05
6.50906e-09
4.6422e-05
8.16041e-09
4.6422e-05
8.69724e-09
4.64219e-05
8.23141e-09
4.64221e-05
7.76033e-09
4.64227e-05
7.81503e-09
4.64233e-05
7.96364e-09
4.64238e-05
7.84288e-09
4.64241e-05
7.43532e-09
6.94042e-09
4.64245e-05
5.05283e-05
1.14639e-09
5.05272e-05
6.27599e-10
5.05274e-05
1.93757e-09
5.05282e-05
5.34594e-09
5.05273e-05
5.18867e-09
5.05265e-05
3.86416e-09
5.05272e-05
5.49574e-09
5.0528e-05
7.92986e-09
5.05274e-05
7.95731e-09
5.05265e-05
6.72864e-09
5.05264e-05
6.59206e-09
5.0527e-05
7.58795e-09
5.05274e-05
8.24282e-09
5.05276e-05
8.06591e-09
5.05278e-05
7.5918e-09
5.05282e-05
7.35288e-09
5.05288e-05
7.35958e-09
5.05294e-05
7.28982e-09
5.05298e-05
7.0099e-09
6.5969e-09
5.05302e-05
5.49949e-05
9.85269e-10
5.49942e-05
1.32499e-09
5.49941e-05
2.11452e-09
5.49948e-05
4.639e-09
5.49945e-05
5.42345e-09
5.49937e-05
4.64706e-09
5.4994e-05
5.28694e-09
5.49948e-05
7.07862e-09
5.4995e-05
7.75864e-09
5.49946e-05
7.14003e-09
5.49945e-05
6.7275e-09
5.49949e-05
7.12045e-09
5.49955e-05
7.63342e-09
5.49959e-05
7.6579e-09
5.49962e-05
7.31896e-09
5.49966e-05
6.98025e-09
5.49971e-05
6.80737e-09
5.49977e-05
6.68497e-09
5.49983e-05
6.46288e-09
6.13228e-09
5.49988e-05
5.98563e-05
8.55767e-10
5.9856e-05
1.69808e-09
5.98557e-05
2.37864e-09
5.98562e-05
4.12444e-09
5.98564e-05
5.21474e-09
5.9856e-05
5.04524e-09
5.9856e-05
5.28162e-09
5.98567e-05
6.4055e-09
5.98573e-05
7.18478e-09
5.98574e-05
7.04682e-09
5.98574e-05
6.70422e-09
5.98578e-05
6.72872e-09
5.98584e-05
6.98391e-09
5.98591e-05
7.04102e-09
5.98596e-05
6.83075e-09
5.986e-05
6.52128e-09
5.98605e-05
6.26673e-09
5.98612e-05
6.0829e-09
5.98617e-05
5.88675e-09
5.62122e-09
5.98622e-05
6.51475e-05
7.66526e-10
6.51474e-05
1.81704e-09
6.51472e-05
2.53241e-09
6.51476e-05
3.75733e-09
6.5148e-05
4.80105e-09
6.5148e-05
5.03329e-09
6.51481e-05
5.21004e-09
6.51486e-05
5.8542e-09
6.51494e-05
6.46835e-09
6.51498e-05
6.56954e-09
6.51502e-05
6.38122e-09
6.51506e-05
6.275e-09
6.51513e-05
6.32204e-09
6.5152e-05
6.34431e-09
6.51526e-05
6.2122e-09
6.51531e-05
5.9709e-09
6.51537e-05
5.71553e-09
6.51543e-05
5.48642e-09
6.51549e-05
5.26622e-09
5.02306e-09
6.51555e-05
7.09064e-05
6.90859e-10
7.09065e-05
1.7641e-09
7.09065e-05
2.51263e-09
7.09068e-05
3.41909e-09
7.09073e-05
4.28396e-09
7.09077e-05
4.70113e-09
7.0908e-05
4.91016e-09
7.09085e-05
5.28543e-09
7.09093e-05
5.69981e-09
7.091e-05
5.8599e-09
7.09106e-05
5.79556e-09
7.09112e-05
5.68908e-09
7.09119e-05
5.63711e-09
7.09126e-05
5.59305e-09
7.09134e-05
5.47581e-09
7.09141e-05
5.27997e-09
7.09147e-05
5.05095e-09
7.09154e-05
4.82429e-09
7.0916e-05
4.60869e-09
4.39294e-09
7.09167e-05
7.71744e-05
6.06527e-10
7.71746e-05
1.58957e-09
7.71748e-05
2.30771e-09
7.71752e-05
3.01226e-09
7.71758e-05
3.68199e-09
7.71764e-05
4.12207e-09
7.71769e-05
4.36679e-09
7.71776e-05
4.60713e-09
7.71785e-05
4.86067e-09
7.71793e-05
5.00966e-09
7.71801e-05
5.00979e-09
7.71809e-05
4.92754e-09
7.71817e-05
4.83789e-09
7.71825e-05
4.74991e-09
7.71833e-05
4.63583e-09
7.71841e-05
4.4831e-09
7.71849e-05
4.3037e-09
7.71856e-05
4.11486e-09
7.71863e-05
3.92435e-09
3.73154e-09
7.71869e-05
8.39965e-05
4.99113e-10
8.39968e-05
1.31313e-09
8.39972e-05
1.93167e-09
8.39977e-05
2.48085e-09
8.39984e-05
2.97981e-09
8.39992e-05
3.35386e-09
8.4e-05
3.5942e-09
8.40008e-05
3.77322e-09
8.40017e-05
3.92651e-09
8.40027e-05
4.02549e-09
8.40037e-05
4.04381e-09
8.40046e-05
3.99768e-09
8.40055e-05
3.92121e-09
8.40065e-05
3.83152e-09
8.40074e-05
3.72628e-09
8.40082e-05
3.59967e-09
8.40091e-05
3.45353e-09
8.40099e-05
3.29575e-09
8.40107e-05
3.13382e-09
2.97177e-09
8.40115e-05
9.14217e-05
3.70788e-10
9.14221e-05
9.58835e-10
9.14226e-05
1.41489e-09
9.14233e-05
1.81077e-09
9.14241e-05
2.15986e-09
9.1425e-05
2.43572e-09
9.1426e-05
2.62887e-09
9.1427e-05
2.76391e-09
9.1428e-05
2.86218e-09
9.14291e-05
2.92248e-09
9.14302e-05
2.93789e-09
9.14313e-05
2.91286e-09
9.14324e-05
2.86086e-09
9.14334e-05
2.79285e-09
9.14344e-05
2.71274e-09
9.14354e-05
2.62067e-09
9.14364e-05
2.51752e-09
9.14372e-05
2.40617e-09
9.14381e-05
2.29015e-09
2.17238e-09
9.14389e-05
9.95033e-05
9.95038e-05
9.95045e-05
9.95053e-05
9.95063e-05
9.95074e-05
9.95085e-05
9.95097e-05
9.9511e-05
9.95122e-05
9.95135e-05
9.95148e-05
9.9516e-05
9.95171e-05
9.95183e-05
9.95194e-05
9.95205e-05
9.95215e-05
9.95224e-05
9.95233e-05
1.98556e-05
1.07774e-08
1.98448e-05
1.08676e-08
1.98328e-05
1.19973e-08
1.98191e-05
1.37205e-08
1.98036e-05
1.54525e-08
1.97867e-05
1.6939e-08
1.97685e-05
1.81911e-08
1.97495e-05
1.89575e-08
1.97305e-05
1.90523e-08
1.97117e-05
1.87707e-08
1.96928e-05
1.8909e-08
1.96736e-05
1.92343e-08
1.96539e-05
1.96109e-08
1.9634e-05
1.99341e-08
1.96137e-05
2.02931e-08
1.9593e-05
2.06852e-08
1.95721e-05
2.09265e-08
1.95512e-05
2.09476e-08
1.95304e-05
2.0796e-08
1.95098e-05
2.05707e-08
1.94894e-05
2.03806e-08
1.94692e-05
2.02532e-08
1.94489e-05
2.02213e-08
1.94286e-05
2.03714e-08
1.94079e-05
2.07051e-08
1.93867e-05
2.11623e-08
1.9365e-05
2.16947e-08
1.93428e-05
2.21976e-08
1.93202e-05
2.25734e-08
1.92974e-05
2.28385e-08
1.92744e-05
2.29863e-08
1.92515e-05
2.29473e-08
1.92287e-05
2.27919e-08
1.9206e-05
2.26731e-08
1.91834e-05
2.26358e-08
1.91607e-05
2.27007e-08
1.91377e-05
2.29481e-08
1.91143e-05
2.33849e-08
1.90904e-05
2.38813e-08
1.90662e-05
2.428e-08
1.90417e-05
2.44896e-08
1.90172e-05
2.45179e-08
1.89927e-05
2.44687e-08
1.89682e-05
2.4473e-08
1.89436e-05
2.46098e-08
1.89187e-05
2.48801e-08
1.88935e-05
2.51992e-08
1.88681e-05
2.54457e-08
1.88425e-05
2.55826e-08
1.88168e-05
2.5701e-08
1.87909e-05
2.58909e-08
1.87648e-05
2.6118e-08
1.87385e-05
2.62872e-08
1.87121e-05
2.63908e-08
1.86856e-05
2.65263e-08
1.86588e-05
2.67679e-08
1.86317e-05
2.70612e-08
1.86045e-05
2.727e-08
1.85772e-05
2.73266e-08
1.85498e-05
2.73241e-08
1.85224e-05
2.74447e-08
1.84946e-05
2.77793e-08
1.84664e-05
2.82108e-08
1.84379e-05
2.84842e-08
1.84095e-05
2.84172e-08
1.83814e-05
2.80759e-08
1.83537e-05
2.7765e-08
1.83258e-05
2.78299e-08
1.82974e-05
2.84085e-08
1.82681e-05
2.92953e-08
1.82381e-05
3.00017e-08
1.82082e-05
2.99643e-08
1.81794e-05
2.87814e-08
1.8153e-05
2.63585e-08
1.81301e-05
2.2916e-08
1.81112e-05
1.88824e-08
1.80965e-05
1.47444e-08
1.80856e-05
1.09168e-08
1.80779e-05
7.67012e-09
1.80728e-05
5.11772e-09
1.80695e-05
3.24545e-09
1.80676e-05
1.95891e-09
1.80664e-05
1.12944e-09
1.80658e-05
6.28186e-10
1.80655e-05
3.44197e-10
1.80653e-05
1.93884e-10
1.80651e-05
1.21815e-10
1.80651e-05
9.1063e-11
1.8065e-05
7.95844e-11
1.80649e-05
7.58234e-11
1.80648e-05
7.4294e-11
1.80647e-05
7.2767e-11
1.80647e-05
7.05562e-11
1.80646e-05
6.76013e-11
1.80645e-05
6.40757e-11
1.80645e-05
6.02154e-11
1.80644e-05
5.62216e-11
1.80644e-05
5.224e-11
1.80643e-05
4.83662e-11
1.80643e-05
4.46576e-11
1.80642e-05
4.11454e-11
1.80642e-05
3.78442e-11
1.80642e-05
3.47582e-11
1.80641e-05
3.18852e-11
1.80641e-05
2.92187e-11
1.80641e-05
2.67496e-11
1.80641e-05
2.44675e-11
1.8064e-05
2.23616e-11
1.8064e-05
2.0421e-11
1.8064e-05
1.86346e-11
1.8064e-05
1.69917e-11
1.8064e-05
1.5482e-11
1.8064e-05
1.40959e-11
1.80639e-05
1.28246e-11
1.80639e-05
1.16595e-11
1.80639e-05
1.05926e-11
1.80639e-05
9.61607e-12
1.80639e-05
8.72276e-12
1.80639e-05
7.90618e-12
1.80639e-05
7.16038e-12
1.80639e-05
6.47988e-12
1.80639e-05
5.85949e-12
1.80639e-05
5.29416e-12
1.80639e-05
4.77931e-12
1.80639e-05
4.31086e-12
1.80639e-05
3.88509e-12
1.80638e-05
3.49863e-12
1.80638e-05
3.14801e-12
1.80638e-05
2.82981e-12
1.80638e-05
2.54114e-12
1.80638e-05
2.27963e-12
1.80638e-05
2.04315e-12
1.80638e-05
1.83005e-12
1.80638e-05
1.63781e-12
1.80638e-05
1.46444e-12
1.80638e-05
1.30782e-12
1.80638e-05
1.16668e-12
1.80638e-05
1.03991e-12
1.80638e-05
9.26043e-13
1.80638e-05
8.23829e-13
1.80638e-05
7.31768e-13
1.80638e-05
6.49325e-13
1.80638e-05
5.75887e-13
1.80638e-05
5.10626e-13
1.80638e-05
4.52277e-13
1.80638e-05
3.99866e-13
1.80638e-05
3.52423e-13
1.80638e-05
3.10873e-13
1.80638e-05
2.74063e-13
1.80638e-05
2.41726e-13
1.80638e-05
2.12661e-13
1.80638e-05
1.86195e-13
1.80638e-05
1.63067e-13
1.80638e-05
1.42928e-13
1.80638e-05
1.25148e-13
1.80638e-05
1.09351e-13
1.80638e-05
9.5596e-14
1.80638e-05
8.32448e-14
1.80638e-05
7.32507e-14
1.80638e-05
6.37945e-14
1.80638e-05
5.55038e-14
1.80638e-05
4.82193e-14
1.80638e-05
4.12591e-14
1.80638e-05
3.68152e-14
1.80638e-05
3.02548e-14
1.80638e-05
2.59047e-14
1.80638e-05
2.3304e-14
1.80638e-05
1.90055e-14
1.80638e-05
1.80438e-14
1.80638e-05
1.55444e-14
1.80638e-05
1.22892e-14
1.80638e-05
1.15201e-14
1.80638e-05
9.69114e-15
1.80638e-05
8.66474e-15
1.80638e-05
6.01884e-15
1.80638e-05
6.78708e-15
1.80638e-05
2.99958e-15
1.80638e-05
8.29856e-15
1.80638e-05
-3.1805e-15
1.80638e-05
1.77685e-14
1.80638e-05
-2.23438e-14
1.80638e-05
4.73339e-14
1.80638e-05
-7.46752e-14
1.80638e-05
1.37505e-13
1.80638e-05
-2.25567e-13
1.80638e-05
3.85066e-13
1.80638e-05
-6.22426e-13
1.80638e-05
1.00767e-12
1.80638e-05
-1.56845e-12
1.80638e-05
2.4093e-12
1.80638e-05
-3.56249e-12
1.80638e-05
5.13737e-12
1.80638e-05
-7.09355e-12
1.80638e-05
9.42333e-12
1.80638e-05
-1.18048e-11
1.80638e-05
1.38931e-11
1.80638e-05
-1.484e-11
1.80638e-05
1.38815e-11
1.80638e-05
-9.84127e-12
1.80638e-05
2.32663e-12
1.80638e-05
8.84703e-12
1.80638e-05
-2.17736e-11
1.80638e-05
3.39689e-11
1.80638e-05
-4.06619e-11
1.80638e-05
3.89482e-11
1.80638e-05
-2.62912e-11
1.80638e-05
6.93579e-12
1.80638e-05
1.39871e-11
1.80638e-05
-2.50962e-11
1.80638e-05
2.45198e-11
1.80638e-05
-9.07868e-12
1.80638e-05
-3.83905e-12
1.80638e-05
1.48545e-11
1.80638e-05
1.96086e-14
1.80638e-05
-4.55197e-12
1.80638e-05
3.92396e-11
1.80638e-05
-2.11527e-11
1.80637e-05
7.34374e-11
1.80637e-05
-2.5019e-11
1.95895e-10
2.16453e-05
1.03382e-08
2.16461e-05
1.00585e-08
2.16475e-05
1.05751e-08
2.16494e-05
1.1838e-08
2.16514e-05
1.34162e-08
2.16533e-05
1.50203e-08
2.16549e-05
1.65895e-08
2.1656e-05
1.78909e-08
2.16565e-05
1.86104e-08
2.16565e-05
1.87708e-08
2.16567e-05
1.86977e-08
2.16572e-05
1.87141e-08
2.16579e-05
1.88704e-08
2.16588e-05
1.90584e-08
2.16597e-05
1.93553e-08
2.16606e-05
1.98163e-08
2.16613e-05
2.02669e-08
2.16617e-05
2.05354e-08
2.16619e-05
2.05789e-08
2.1662e-05
2.04741e-08
2.1662e-05
2.03519e-08
2.1662e-05
2.02639e-08
2.1662e-05
2.02494e-08
2.1662e-05
2.03987e-08
2.16619e-05
2.07267e-08
2.16619e-05
2.11824e-08
2.16619e-05
2.17254e-08
2.16618e-05
2.22383e-08
2.16618e-05
2.25862e-08
2.16619e-05
2.28125e-08
2.16619e-05
2.29818e-08
2.16618e-05
2.30218e-08
2.16616e-05
2.29531e-08
2.16614e-05
2.29342e-08
2.1661e-05
2.3024e-08
2.16605e-05
2.31929e-08
2.166e-05
2.34655e-08
2.16595e-05
2.3854e-08
2.16591e-05
2.42795e-08
2.16587e-05
2.46414e-08
2.16583e-05
2.48766e-08
2.16579e-05
2.49827e-08
2.16573e-05
2.50356e-08
2.16567e-05
2.51278e-08
2.1656e-05
2.53017e-08
2.16553e-05
2.55634e-08
2.16546e-05
2.58795e-08
2.16539e-05
2.61633e-08
2.16531e-05
2.63545e-08
2.16523e-05
2.65048e-08
2.16515e-05
2.67051e-08
2.16507e-05
2.69523e-08
2.16498e-05
2.71679e-08
2.16488e-05
2.73274e-08
2.16479e-05
2.74989e-08
2.16469e-05
2.77439e-08
2.16459e-05
2.80276e-08
2.1645e-05
2.82505e-08
2.16439e-05
2.8362e-08
2.16428e-05
2.84301e-08
2.16417e-05
2.85878e-08
2.16406e-05
2.88961e-08
2.16395e-05
2.92562e-08
2.16385e-05
2.94672e-08
2.16375e-05
2.93972e-08
2.16365e-05
2.9123e-08
2.16354e-05
2.8909e-08
2.16342e-05
2.90276e-08
2.1633e-05
2.95422e-08
2.16321e-05
3.0199e-08
2.16316e-05
3.04995e-08
2.16317e-05
2.99092e-08
2.16324e-05
2.80877e-08
2.16337e-05
2.50229e-08
2.16356e-05
2.10212e-08
2.16379e-05
1.65835e-08
2.16404e-05
1.22391e-08
2.16429e-05
8.40943e-09
2.16452e-05
5.33786e-09
2.16473e-05
3.08836e-09
2.16489e-05
1.58868e-09
2.16502e-05
6.90497e-10
2.16511e-05
2.23967e-10
2.16517e-05
3.53062e-11
2.1652e-05
-2.0228e-12
2.16522e-05
2.78227e-11
2.16522e-05
8.49249e-11
2.16522e-05
1.40801e-10
2.16521e-05
1.82457e-10
2.1652e-05
2.07523e-10
2.16518e-05
2.18256e-10
2.16517e-05
2.18427e-10
2.16515e-05
2.11666e-10
2.16514e-05
2.00831e-10
2.16513e-05
1.87937e-10
2.16512e-05
1.74299e-10
2.16511e-05
1.60715e-10
2.1651e-05
1.47637e-10
2.16509e-05
1.35294e-10
2.16508e-05
1.23782e-10
2.16507e-05
1.13122e-10
2.16507e-05
1.03295e-10
2.16506e-05
9.426e-11
2.16505e-05
8.59685e-11
2.16505e-05
7.83683e-11
2.16504e-05
7.14073e-11
2.16504e-05
6.50348e-11
2.16504e-05
5.92036e-11
2.16503e-05
5.38696e-11
2.16503e-05
4.89922e-11
2.16503e-05
4.4534e-11
2.16503e-05
4.04603e-11
2.16502e-05
3.67393e-11
2.16502e-05
3.33418e-11
2.16502e-05
3.02405e-11
2.16502e-05
2.74109e-11
2.16502e-05
2.483e-11
2.16501e-05
2.24774e-11
2.16501e-05
2.03341e-11
2.16501e-05
1.83828e-11
2.16501e-05
1.66071e-11
2.16501e-05
1.49918e-11
2.16501e-05
1.3523e-11
2.16501e-05
1.21883e-11
2.16501e-05
1.09767e-11
2.16501e-05
9.87821e-12
2.16501e-05
8.88315e-12
2.16501e-05
7.9819e-12
2.16501e-05
7.16539e-12
2.16501e-05
6.42586e-12
2.16501e-05
5.75733e-12
2.165e-05
5.15413e-12
2.165e-05
4.6111e-12
2.165e-05
4.12183e-12
2.165e-05
3.6808e-12
2.165e-05
3.28295e-12
2.165e-05
2.92521e-12
2.165e-05
2.6043e-12
2.165e-05
2.31685e-12
2.165e-05
2.05895e-12
2.165e-05
1.82719e-12
2.165e-05
1.61986e-12
2.165e-05
1.43517e-12
2.165e-05
1.27122e-12
2.165e-05
1.12445e-12
2.165e-05
9.92912e-13
2.165e-05
8.74504e-13
2.165e-05
7.70479e-13
2.165e-05
6.78798e-13
2.165e-05
5.98068e-13
2.165e-05
5.25521e-13
2.165e-05
4.60204e-13
2.165e-05
4.02835e-13
2.165e-05
3.52758e-13
2.165e-05
3.08999e-13
2.165e-05
2.69709e-13
2.165e-05
2.35457e-13
2.165e-05
2.04951e-13
2.165e-05
1.79452e-13
2.165e-05
1.55896e-13
2.165e-05
1.35235e-13
2.165e-05
1.17349e-13
2.165e-05
1.00985e-13
2.165e-05
8.89547e-14
2.165e-05
7.51943e-14
2.165e-05
6.4469e-14
2.165e-05
5.6428e-14
2.165e-05
4.89741e-14
2.165e-05
4.20775e-14
2.165e-05
3.73703e-14
2.165e-05
2.99484e-14
2.165e-05
2.643e-14
2.165e-05
2.4007e-14
2.165e-05
2.00845e-14
2.165e-05
1.65167e-14
2.165e-05
1.4277e-14
2.165e-05
1.10024e-14
2.165e-05
1.38337e-14
2.165e-05
4.29465e-15
2.165e-05
1.9429e-14
2.165e-05
-1.16243e-14
2.165e-05
3.92617e-14
2.165e-05
-5.08408e-14
2.165e-05
1.07112e-13
2.165e-05
-1.64231e-13
2.165e-05
2.92942e-13
2.165e-05
-4.62902e-13
2.165e-05
7.64457e-13
2.165e-05
-1.17976e-12
2.165e-05
1.83716e-12
2.165e-05
-2.71069e-12
2.165e-05
3.9515e-12
2.165e-05
-5.4602e-12
2.165e-05
7.32458e-12
2.165e-05
-9.18141e-12
2.165e-05
1.08845e-11
2.165e-05
-1.15626e-11
2.165e-05
1.07523e-11
2.165e-05
-7.16955e-12
2.165e-05
7.19025e-13
2.165e-05
9.21225e-12
2.165e-05
-2.04825e-11
2.165e-05
3.14603e-11
2.165e-05
-3.69649e-11
2.165e-05
3.50885e-11
2.165e-05
-2.20317e-11
2.165e-05
3.1616e-12
2.165e-05
1.8606e-11
2.165e-05
-2.94e-11
2.165e-05
3.04921e-11
2.165e-05
-1.40255e-11
2.165e-05
3.67525e-12
2.165e-05
9.21749e-12
2.165e-05
1.151e-11
2.165e-05
-1.2629e-11
2.165e-05
5.56095e-11
2.165e-05
-2.62157e-11
2.165e-05
9.15171e-11
2.165e-05
-9.40001e-12
1.8487e-10
2.35631e-05
9.9145e-09
2.35633e-05
9.87435e-09
2.35636e-05
1.0247e-08
2.35643e-05
1.10942e-08
2.35655e-05
1.2285e-08
2.35669e-05
1.36248e-08
2.35685e-05
1.49901e-08
2.35701e-05
1.6282e-08
2.35714e-05
1.72961e-08
2.35723e-05
1.78773e-08
2.35729e-05
1.80917e-08
2.35734e-05
1.81476e-08
2.35741e-05
1.81809e-08
2.3575e-05
1.81847e-08
2.35761e-05
1.82316e-08
2.35775e-05
1.84903e-08
2.35788e-05
1.8975e-08
2.35798e-05
1.94707e-08
2.35806e-05
1.97694e-08
2.35812e-05
1.98842e-08
2.35816e-05
1.99281e-08
2.3582e-05
1.99417e-08
2.35823e-05
1.99336e-08
2.35827e-05
1.99799e-08
2.35832e-05
2.0178e-08
2.35839e-05
2.0549e-08
2.35846e-05
2.10497e-08
2.35852e-05
2.15443e-08
2.3586e-05
2.1873e-08
2.35867e-05
2.20659e-08
2.35875e-05
2.22311e-08
2.35882e-05
2.23258e-08
2.35888e-05
2.23297e-08
2.35893e-05
2.23816e-08
2.35898e-05
2.25655e-08
2.35902e-05
2.28177e-08
2.35905e-05
2.30867e-08
2.3591e-05
2.33768e-08
2.35916e-05
2.36712e-08
2.35923e-05
2.39359e-08
2.35931e-05
2.41513e-08
2.35937e-05
2.43225e-08
2.35943e-05
2.44782e-08
2.35948e-05
2.46376e-08
2.35953e-05
2.48072e-08
2.35958e-05
2.50148e-08
2.35964e-05
2.52764e-08
2.3597e-05
2.55386e-08
2.35977e-05
2.57356e-08
2.35983e-05
2.58929e-08
2.35989e-05
2.60846e-08
2.35995e-05
2.63124e-08
2.36002e-05
2.65127e-08
2.36008e-05
2.6669e-08
2.36015e-05
2.68399e-08
2.36022e-05
2.70671e-08
2.36029e-05
2.73097e-08
2.36037e-05
2.74896e-08
2.36044e-05
2.75844e-08
2.36052e-05
2.76614e-08
2.3606e-05
2.78167e-08
2.36068e-05
2.80744e-08
2.36077e-05
2.83412e-08
2.36087e-05
2.84667e-08
2.36097e-05
2.837e-08
2.36107e-05
2.81259e-08
2.36117e-05
2.79329e-08
2.36128e-05
2.79742e-08
2.3614e-05
2.8263e-08
2.36157e-05
2.8578e-08
2.36176e-05
2.85319e-08
2.36198e-05
2.77336e-08
2.36219e-05
2.59537e-08
2.36238e-05
2.32128e-08
2.3625e-05
1.97642e-08
2.36256e-05
1.59977e-08
2.36255e-05
1.23168e-08
2.36249e-05
9.04111e-09
2.36239e-05
6.35687e-09
2.36226e-05
4.31722e-09
2.36214e-05
2.87373e-09
2.36201e-05
1.91992e-09
2.3619e-05
1.33057e-09
2.36181e-05
9.89092e-10
2.36173e-05
8.00344e-10
2.36166e-05
6.96191e-10
2.3616e-05
6.35791e-10
2.36156e-05
5.94566e-10
2.36152e-05
5.59484e-10
2.36149e-05
5.25183e-10
2.36146e-05
4.90181e-10
2.36144e-05
4.54706e-10
2.36142e-05
4.19538e-10
2.3614e-05
3.85455e-10
2.36138e-05
3.53034e-10
2.36137e-05
3.22629e-10
2.36135e-05
2.94401e-10
2.36134e-05
2.68377e-10
2.36133e-05
2.44495e-10
2.36132e-05
2.22643e-10
2.36131e-05
2.02681e-10
2.3613e-05
1.84464e-10
2.3613e-05
1.67847e-10
2.36129e-05
1.52695e-10
2.36128e-05
1.38881e-10
2.36128e-05
1.26286e-10
2.36127e-05
1.14802e-10
2.36127e-05
1.04331e-10
2.36127e-05
9.47823e-11
2.36126e-05
8.60757e-11
2.36126e-05
7.81376e-11
2.36126e-05
7.09013e-11
2.36125e-05
6.43055e-11
2.36125e-05
5.82946e-11
2.36125e-05
5.28176e-11
2.36125e-05
4.78282e-11
2.36124e-05
4.32846e-11
2.36124e-05
3.91489e-11
2.36124e-05
3.53863e-11
2.36124e-05
3.1965e-11
2.36124e-05
2.88552e-11
2.36124e-05
2.60293e-11
2.36124e-05
2.34624e-11
2.36124e-05
2.11322e-11
2.36123e-05
1.90191e-11
2.36123e-05
1.71049e-11
2.36123e-05
1.53722e-11
2.36123e-05
1.38039e-11
2.36123e-05
1.23844e-11
2.36123e-05
1.11001e-11
2.36123e-05
9.9401e-12
2.36123e-05
8.89415e-12
2.36123e-05
7.95271e-12
2.36123e-05
7.10487e-12
2.36123e-05
6.3411e-12
2.36123e-05
5.65286e-12
2.36123e-05
5.03448e-12
2.36123e-05
4.47997e-12
2.36123e-05
3.9835e-12
2.36123e-05
3.53839e-12
2.36123e-05
3.13897e-12
2.36123e-05
2.78182e-12
2.36123e-05
2.46347e-12
2.36123e-05
2.18067e-12
2.36123e-05
1.92762e-12
2.36123e-05
1.70136e-12
2.36123e-05
1.49839e-12
2.36123e-05
1.31963e-12
2.36123e-05
1.16211e-12
2.36123e-05
1.02307e-12
2.36123e-05
8.98574e-13
2.36123e-05
7.86948e-13
2.36123e-05
6.8875e-13
2.36123e-05
6.02844e-13
2.36123e-05
5.27866e-13
2.36123e-05
4.60683e-13
2.36123e-05
4.01981e-13
2.36123e-05
3.49751e-13
2.36123e-05
3.05477e-13
2.36123e-05
2.65464e-13
2.36123e-05
2.29962e-13
2.36123e-05
1.99608e-13
2.36123e-05
1.72349e-13
2.36123e-05
1.503e-13
2.36123e-05
1.2869e-13
2.36123e-05
1.1096e-13
2.36123e-05
9.47687e-14
2.36123e-05
8.50257e-14
2.36123e-05
7.03927e-14
2.36123e-05
6.22493e-14
2.36123e-05
5.2192e-14
2.36123e-05
4.37403e-14
2.36123e-05
4.08174e-14
2.36123e-05
3.36301e-14
2.36123e-05
2.86699e-14
2.36123e-05
2.36476e-14
2.36123e-05
1.98516e-14
2.36123e-05
2.13121e-14
2.36123e-05
1.15371e-14
2.36123e-05
2.31349e-14
2.36123e-05
-2.48494e-15
2.36123e-05
3.65133e-14
2.36123e-05
-3.48436e-14
2.36123e-05
9.10729e-14
2.36123e-05
-1.24875e-13
2.36123e-05
2.36135e-13
2.36123e-05
-3.56202e-13
2.36123e-05
5.99714e-13
2.36123e-05
-8.99942e-13
2.36123e-05
1.40854e-12
2.36123e-05
-2.03124e-12
2.36123e-05
2.94824e-12
2.36123e-05
-3.97353e-12
2.36123e-05
5.26179e-12
2.36123e-05
-6.36791e-12
2.36123e-05
7.3223e-12
2.36123e-05
-7.2329e-12
2.36123e-05
6.01432e-12
2.36123e-05
-2.43891e-12
2.36123e-05
-2.99479e-12
2.36123e-05
1.10666e-11
2.36123e-05
-1.92204e-11
2.36123e-05
2.67596e-11
2.36123e-05
-2.85608e-11
2.36123e-05
2.46618e-11
2.36123e-05
-1.09704e-11
2.36123e-05
-5.39237e-12
2.36123e-05
2.43154e-11
2.36123e-05
-3.10424e-11
2.36123e-05
3.19605e-11
2.36123e-05
-1.54286e-11
2.36123e-05
1.04374e-11
2.36123e-05
2.11039e-12
2.36123e-05
2.32159e-11
2.36123e-05
-1.79161e-11
2.36123e-05
6.40753e-11
2.36123e-05
-2.08836e-11
2.36123e-05
8.94027e-11
2.36122e-05
1.41913e-11
1.61616e-10
2.56483e-05
9.37053e-09
2.56486e-05
9.47785e-09
2.56491e-05
9.82392e-09
2.56497e-05
1.04855e-08
2.56505e-05
1.14325e-08
2.56516e-05
1.25422e-08
2.56529e-05
1.36869e-08
2.56544e-05
1.48251e-08
2.56558e-05
1.58615e-08
2.56571e-05
1.66196e-08
2.56581e-05
1.70998e-08
2.56588e-05
1.73902e-08
2.56595e-05
1.75487e-08
2.56601e-05
1.75758e-08
2.56608e-05
1.75102e-08
2.56617e-05
1.7539e-08
2.56629e-05
1.7853e-08
2.5664e-05
1.83686e-08
2.56649e-05
1.88079e-08
2.56657e-05
1.9063e-08
2.56664e-05
1.92585e-08
2.56669e-05
1.94586e-08
2.56673e-05
1.95501e-08
2.56677e-05
1.95297e-08
2.56683e-05
1.95698e-08
2.56691e-05
1.98067e-08
2.56699e-05
2.02643e-08
2.56706e-05
2.07922e-08
2.56713e-05
2.11609e-08
2.5672e-05
2.13667e-08
2.56727e-05
2.15476e-08
2.56734e-05
2.1677e-08
2.5674e-05
2.16958e-08
2.56746e-05
2.17417e-08
2.56752e-05
2.19569e-08
2.56758e-05
2.22739e-08
2.56763e-05
2.25605e-08
2.56769e-05
2.27928e-08
2.56776e-05
2.30099e-08
2.56783e-05
2.32258e-08
2.5679e-05
2.34324e-08
2.56797e-05
2.36423e-08
2.56803e-05
2.38663e-08
2.56808e-05
2.40648e-08
2.56815e-05
2.4205e-08
2.56821e-05
2.43452e-08
2.56828e-05
2.45682e-08
2.56835e-05
2.48437e-08
2.56842e-05
2.50643e-08
2.56849e-05
2.52107e-08
2.56856e-05
2.53634e-08
2.56863e-05
2.55643e-08
2.56871e-05
2.57689e-08
2.56878e-05
2.59375e-08
2.56886e-05
2.60914e-08
2.56894e-05
2.62636e-08
2.56902e-05
2.64456e-08
2.56911e-05
2.66047e-08
2.5692e-05
2.67273e-08
2.56928e-05
2.68332e-08
2.56937e-05
2.69519e-08
2.56947e-05
2.70891e-08
2.56958e-05
2.7211e-08
2.5697e-05
2.72626e-08
2.56981e-05
2.72123e-08
2.56992e-05
2.70855e-08
2.57002e-05
2.69547e-08
2.57013e-05
2.68817e-08
2.57027e-05
2.68494e-08
2.57045e-05
2.67297e-08
2.57067e-05
2.6312e-08
2.57091e-05
2.53804e-08
2.57112e-05
2.37998e-08
2.57129e-05
2.1571e-08
2.57138e-05
1.88341e-08
2.5714e-05
1.58246e-08
2.57135e-05
1.28071e-08
2.57125e-05
1.00136e-08
2.57113e-05
7.60311e-09
2.571e-05
5.65056e-09
2.57087e-05
4.15661e-09
2.57075e-05
3.07046e-09
2.57065e-05
2.31489e-09
2.57057e-05
1.8071e-09
2.5705e-05
1.47189e-09
2.57045e-05
1.24955e-09
2.5704e-05
1.09778e-09
2.57036e-05
9.87473e-10
2.57033e-05
9.00034e-10
2.5703e-05
8.24966e-10
2.57027e-05
7.5702e-10
2.57025e-05
6.93933e-10
2.57023e-05
6.34941e-10
2.57021e-05
5.7989e-10
2.57019e-05
5.28791e-10
2.57017e-05
4.81634e-10
2.57016e-05
4.38329e-10
2.57015e-05
3.9871e-10
2.57014e-05
3.62558e-10
2.57012e-05
3.29624e-10
2.57011e-05
2.99647e-10
2.57011e-05
2.72372e-10
2.5701e-05
2.47558e-10
2.57009e-05
2.24983e-10
2.57008e-05
2.04441e-10
2.57008e-05
1.85746e-10
2.57007e-05
1.68727e-10
2.57007e-05
1.5323e-10
2.57006e-05
1.39116e-10
2.57006e-05
1.26261e-10
2.57006e-05
1.14553e-10
2.57005e-05
1.0389e-10
2.57005e-05
9.41796e-11
2.57005e-05
8.5337e-11
2.57004e-05
7.72856e-11
2.57004e-05
6.99559e-11
2.57004e-05
6.32853e-11
2.57004e-05
5.72171e-11
2.57004e-05
5.16996e-11
2.57004e-05
4.66852e-11
2.57003e-05
4.21294e-11
2.57003e-05
3.79914e-11
2.57003e-05
3.42343e-11
2.57003e-05
3.08253e-11
2.57003e-05
2.77352e-11
2.57003e-05
2.49369e-11
2.57003e-05
2.24044e-11
2.57003e-05
2.0113e-11
2.57003e-05
1.80399e-11
2.57003e-05
1.61652e-11
2.57003e-05
1.44728e-11
2.57003e-05
1.29471e-11
2.57003e-05
1.15737e-11
2.57003e-05
1.0337e-11
2.57003e-05
9.2234e-12
2.57002e-05
8.22058e-12
2.57002e-05
7.31989e-12
2.57002e-05
6.51226e-12
2.57002e-05
5.78916e-12
2.57002e-05
5.14111e-12
2.57002e-05
4.5601e-12
2.57002e-05
4.04077e-12
2.57002e-05
3.57754e-12
2.57002e-05
3.16575e-12
2.57002e-05
2.79737e-12
2.57002e-05
2.46855e-12
2.57002e-05
2.17431e-12
2.57002e-05
1.91476e-12
2.57002e-05
1.68568e-12
2.57002e-05
1.48326e-12
2.57002e-05
1.30238e-12
2.57002e-05
1.1408e-12
2.57002e-05
9.98475e-13
2.57002e-05
8.73705e-13
2.57002e-05
7.64833e-13
2.57002e-05
6.67447e-13
2.57002e-05
5.82398e-13
2.57002e-05
5.06581e-13
2.57002e-05
4.41841e-13
2.57002e-05
3.83942e-13
2.57002e-05
3.3271e-13
2.57002e-05
2.88624e-13
2.57002e-05
2.4967e-13
2.57002e-05
2.16905e-13
2.57002e-05
1.85781e-13
2.57002e-05
1.62189e-13
2.57002e-05
1.3626e-13
2.57002e-05
1.22993e-13
2.57002e-05
1.02505e-13
2.57002e-05
8.78329e-14
2.57002e-05
7.68547e-14
2.57002e-05
6.31424e-14
2.57002e-05
5.80808e-14
2.57002e-05
4.86076e-14
2.57002e-05
4.15635e-14
2.57002e-05
3.41821e-14
2.57002e-05
2.92542e-14
2.57002e-05