/*--------------------------------*- C++ -*----------------------------------*\
| =========                 |                                                 |
| \\      /  F ield         | OpenFOAM: The Open Source CFD Toolbox           |
|  \\    /   O peration     | Version:  v1906                                 |
|   \\  /    A nd           | Web:      www.OpenFOAM.com                      |
|    \\/     M anipulation  |                                                 |
\*---------------------------------------------------------------------------*/
FoamFile
{
    version     2.0;
    format      ascii;
    class       volVectorField;
    location    "0.2";
    object      U;
}
// * * * * * * * * * * * * * * * * * * * * * * * * * * * * * * * * * * * * * //

dimensions      [0 1 -1 0 0 0 0];


internalField   nonuniform List<vector> 
4800
(
(0.997619 3.24343e-05 0)
(1.00221 -0.000128007 0)
(0.997941 -6.4784e-05 0)
(1.00194 9.79549e-05 0)
(0.998184 0.000262091 0)
(1.00131 0.000257993 0)
(0.998298 7.17528e-05 0)
(1.00132 -0.000160355 0)
(0.99874 -0.000346759 0)
(1.001 -0.000400034 0)
(0.998726 -0.000348972 0)
(1.00081 -0.000217197 0)
(0.998987 -5.72521e-05 0)
(1.00064 9.54285e-05 0)
(0.998953 0.000236529 0)
(1.00039 0.000349982 0)
(0.999118 0.000439359 0)
(1.00047 0.000502605 0)
(0.999406 0.000518413 0)
(1.00046 0.000507769 0)
(1.00001 2.73682e-05 0)
(1.00005 -0.000140542 0)
(0.999831 -6.2842e-05 0)
(0.999948 0.000125825 0)
(0.999926 0.00028729 0)
(0.999978 0.00027758 0)
(1.00009 7.59042e-05 0)
(1.00024 -0.000178162 0)
(1.00005 -0.000370413 0)
(0.999714 -0.000415007 0)
(0.999439 -0.000341948 0)
(0.999396 -0.000187063 0)
(0.999396 8.15074e-06 0)
(0.999383 0.000201771 0)
(0.999354 0.000389441 0)
(0.999438 0.000548056 0)
(0.999599 0.000670759 0)
(0.999766 0.00074653 0)
(0.999855 0.000758215 0)
(0.999858 0.000733781 0)
(1.00006 4.92741e-07 0)
(1.00001 -5.4081e-05 0)
(0.999878 -6.75682e-05 0)
(0.999924 9.45888e-05 0)
(0.999958 0.00019775 0)
(0.99997 0.00018542 0)
(1.00011 6.7319e-05 0)
(1.00024 -9.63681e-05 0)
(1.00008 -0.000210487 0)
(0.999728 -0.000227594 0)
(0.999473 -0.00016293 0)
(0.99942 -4.976e-05 0)
(0.999444 8.88101e-05 0)
(0.999432 0.000233494 0)
(0.99942 0.000370496 0)
(0.999494 0.00047704 0)
(0.999637 0.000539386 0)
(0.99977 0.000561128 0)
(0.999836 0.000551806 0)
(0.99983 0.000525698 0)
(1.00005 -6.9906e-06 0)
(0.999989 -3.90168e-05 0)
(0.999908 -6.53885e-05 0)
(0.999991 8.14339e-05 0)
(0.999984 0.000214539 0)
(0.999929 0.000194669 0)
(1.00003 7.15614e-05 0)
(1.00015 -8.62478e-05 0)
(1.00004 -0.000191277 0)
(0.999759 -0.000197266 0)
(0.999567 -0.000121652 0)
(0.999554 -5.72428e-06 0)
(0.999595 0.000127905 0)
(0.999585 0.000261873 0)
(0.999553 0.000382262 0)
(0.999586 0.000463787 0)
(0.999688 0.000507803 0)
(0.999791 0.000531292 0)
(0.999834 0.00054171 0)
(0.999817 0.00054037 0)
(1.00005 -1.88612e-05 0)
(0.999987 -7.7253e-06 0)
(0.99991 -1.8181e-05 0)
(1.00001 1.90743e-05 0)
(0.999992 0.000144626 0)
(0.999916 0.000165082 0)
(1.00001 6.86208e-05 0)
(1.00014 -3.45832e-05 0)
(1.00006 -7.79862e-05 0)
(0.999801 -5.90555e-05 0)
(0.999621 -9.7241e-07 0)
(0.999615 7.46388e-05 0)
(0.999665 0.00016826 0)
(0.999658 0.000265255 0)
(0.999618 0.000350491 0)
(0.999637 0.000408988 0)
(0.999733 0.000444484 0)
(0.999835 0.000469897 0)
(0.999874 0.000491945 0)
(0.999848 0.000505971 0)
(1.00004 -1.51027e-05 0)
(0.999978 -1.7306e-05 0)
(0.999905 1.74597e-05 0)
(1.00004 5.25409e-06 0)
(1.00003 0.000110656 0)
(0.999891 0.000186591 0)
(0.999936 9.73695e-05 0)
(1.00009 -2.17353e-05 0)
(1.00005 -5.61565e-05 0)
(0.99983 -1.81867e-05 0)
(0.999682 3.74567e-05 0)
(0.999705 9.83646e-05 0)
(0.999774 0.000174687 0)
(0.999769 0.000264705 0)
(0.999713 0.00034911 0)
(0.999706 0.000405848 0)
(0.999779 0.00043427 0)
(0.999869 0.0004479 0)
(0.999901 0.000461931 0)
(0.999865 0.000477428 0)
(1.00003 -7.9237e-06 0)
(0.999986 -2.48628e-05 0)
(0.999899 5.76363e-05 0)
(1.00002 8.95901e-06 0)
(1.00005 3.46462e-05 0)
(0.999896 0.000146852 0)
(0.999901 0.00013496 0)
(1.00007 2.49917e-05 0)
(1.00008 -7.74988e-06 0)
(0.999882 5.48834e-05 0)
(0.999726 0.000124026 0)
(0.999744 0.000160702 0)
(0.999829 0.000195798 0)
(0.999841 0.000253944 0)
(0.999781 0.000326007 0)
(0.999751 0.000378709 0)
(0.999803 0.00040076 0)
(0.999891 0.000405462 0)
(0.999936 0.000414419 0)
(0.999912 0.000435819 0)
(1.00002 3.24082e-06 0)
(0.999991 -3.71017e-05 0)
(0.999899 5.86918e-05 0)
(1.00001 4.13398e-05 0)
(1.00008 1.37872e-05 0)
(0.999927 0.000116634 0)
(0.99986 0.000166553 0)
(1 7.40884e-05 0)
(1.00008 6.82062e-06 0)
(0.999936 5.76569e-05 0)
(0.999779 0.000145364 0)
(0.999782 0.000189206 0)
(0.999879 0.000207793 0)
(0.999919 0.000241886 0)
(0.999867 0.000301818 0)
(0.999811 0.000359476 0)
(0.999829 0.000388786 0)
(0.999904 0.000394761 0)
(0.999963 0.000397707 0)
(0.999957 0.000413672 0)
(1.00001 9.58007e-06 0)
(1 -3.58946e-05 0)
(0.999917 5.51596e-05 0)
(0.999982 7.10049e-05 0)
(1.00007 5.53388e-06 0)
(0.999963 6.32296e-05 0)
(0.999863 0.000154747 0)
(0.99996 0.000129516 0)
(1.00007 5.81754e-05 0)
(0.999997 7.74586e-05 0)
(0.999845 0.000164032 0)
(0.999811 0.000222341 0)
(0.999892 0.000233501 0)
(0.999956 0.0002422 0)
(0.999932 0.000277807 0)
(0.999874 0.000329391 0)
(0.999863 0.000366753 0)
(0.999916 0.000380542 0)
(0.999978 0.000382088 0)
(0.999996 0.000390298 0)
(1 1.37461e-05 0)
(1.00001 -2.42028e-05 0)
(0.999935 3.58072e-05 0)
(0.999967 8.11612e-05 0)
(1.00006 3.10756e-05 0)
(1 4.65277e-05 0)
(0.999889 0.000137474 0)
(0.999926 0.000158835 0)
(1.00004 0.000103285 0)
(1.00003 8.87653e-05 0)
(0.999915 0.0001514 0)
(0.999856 0.000219881 0)
(0.999907 0.000244882 0)
(0.999979 0.000248056 0)
(0.999987 0.000265836 0)
(0.999942 0.000304813 0)
(0.999913 0.000343725 0)
(0.999935 0.000365748 0)
(0.999986 0.000371957 0)
(1.00002 0.000376674 0)
(1 1.38982e-05 0)
(1.00001 -1.15628e-05 0)
(0.99996 2.65008e-05 0)
(0.999963 8.35843e-05 0)
(1.00003 5.47587e-05 0)
(1.00002 4.08694e-05 0)
(0.999929 0.000107808 0)
(0.999924 0.000159177 0)
(1.00001 0.000140792 0)
(1.00004 0.000118367 0)
(0.999976 0.000151668 0)
(0.999912 0.000211428 0)
(0.999927 0.000247502 0)
(0.999985 0.000254788 0)
(1.00001 0.000261165 0)
(0.999994 0.000284636 0)
(0.999965 0.000316892 0)
(0.999967 0.000342973 0)
(1 0.000356095 0)
(1.00003 0.000362517 0)
(1 1.22024e-05 0)
(1.00001 2.82637e-06 0)
(0.999977 2.19549e-05 0)
(0.999968 7.12963e-05 0)
(1.00002 7.04388e-05 0)
(1.00003 5.50482e-05 0)
(0.999968 9.46132e-05 0)
(0.999942 0.000148613 0)
(0.999991 0.000157191 0)
(1.00004 0.0001414 0)
(1.00001 0.000153574 0)
(0.999966 0.000195807 0)
(0.999959 0.000234041 0)
(0.999996 0.000250893 0)
(1.00003 0.000257505 0)
(1.00003 0.000271685 0)
(1.00002 0.000295331 0)
(1.00001 0.000319317 0)
(1.00002 0.000336003 0)
(1.00005 0.000345241 0)
(0.999999 1.04395e-05 0)
(1.00001 1.17882e-05 0)
(0.99999 2.34257e-05 0)
(0.99998 6.28503e-05 0)
(1.00001 7.69496e-05 0)
(1.00002 6.85262e-05 0)
(0.999995 8.85887e-05 0)
(0.999969 0.000132194 0)
(0.999992 0.00015596 0)
(1.00003 0.000154944 0)
(1.00003 0.000160254 0)
(1.00001 0.000186578 0)
(0.999997 0.000218364 0)
(1.00001 0.000239465 0)
(1.00004 0.000249744 0)
(1.00006 0.000259858 0)
(1.00005 0.000275816 0)
(1.00005 0.000294732 0)
(1.00005 0.000311208 0)
(1.00007 0.000322656 0)
(0.999999 8.88861e-06 0)
(1 1.74538e-05 0)
(0.999998 2.70938e-05 0)
(0.99999 5.4947e-05 0)
(1 7.47315e-05 0)
(1.00002 7.72387e-05 0)
(1.00001 8.96486e-05 0)
(0.999996 0.000120393 0)
(1 0.000146624 0)
(1.00003 0.000156061 0)
(1.00004 0.000161646 0)
(1.00004 0.000177821 0)
(1.00003 0.000201339 0)
(1.00004 0.000221871 0)
(1.00006 0.000235281 0)
(1.00007 0.000245341 0)
(1.00008 0.000257246 0)
(1.00008 0.000271535 0)
(1.00008 0.000285616 0)
(1.00009 0.000297073 0)
(1 7.93447e-06 0)
(1 1.95383e-05 0)
(1 2.96329e-05 0)
(0.999999 5.01281e-05 0)
(1.00001 6.99808e-05 0)
(1.00002 7.93212e-05 0)
(1.00002 8.97263e-05 0)
(1.00002 0.000110688 0)
(1.00002 0.000133385 0)
(1.00004 0.000147637 0)
(1.00005 0.000156405 0)
(1.00006 0.000168433 0)
(1.00006 0.000185563 0)
(1.00006 0.000202826 0)
(1.00008 0.000216328 0)
(1.00009 0.000226565 0)
(1.0001 0.000236322 0)
(1.00011 0.000247019 0)
(1.00011 0.000258142 0)
(1.00012 0.000268349 0)
(1 7.16257e-06 0)
(1 1.96701e-05 0)
(1 3.04262e-05 0)
(1.00001 4.61675e-05 0)
(1.00001 6.34287e-05 0)
(1.00002 7.5533e-05 0)
(1.00003 8.62146e-05 0)
(1.00003 0.000101621 0)
(1.00004 0.000119581 0)
(1.00005 0.000134187 0)
(1.00006 0.00014476 0)
(1.00007 0.000155123 0)
(1.00008 0.00016766 0)
(1.00008 0.000180989 0)
(1.00009 0.000192929 0)
(1.00011 0.000202897 0)
(1.00012 0.000211846 0)
(1.00013 0.000220732 0)
(1.00013 0.000229739 0)
(1.00014 0.000238318 0)
(1 6.42921e-06 0)
(1 1.82995e-05 0)
(1.00001 2.88825e-05 0)
(1.00001 4.15721e-05 0)
(1.00002 5.57626e-05 0)
(1.00003 6.78751e-05 0)
(1.00004 7.84415e-05 0)
(1.00004 9.05686e-05 0)
(1.00005 0.000104332 0)
(1.00006 0.000117032 0)
(1.00007 0.000127396 0)
(1.00008 0.000136717 0)
(1.00009 0.000146537 0)
(1.0001 0.000156881 0)
(1.00011 0.000166787 0)
(1.00012 0.000175599 0)
(1.00013 0.000183446 0)
(1.00014 0.000190782 0)
(1.00015 0.000197872 0)
(1.00016 0.000204661 0)
(1 5.54872e-06 0)
(1 1.59018e-05 0)
(1.00001 2.53549e-05 0)
(1.00001 3.55429e-05 0)
(1.00002 4.66052e-05 0)
(1.00003 5.69537e-05 0)
(1.00004 6.62098e-05 0)
(1.00005 7.56832e-05 0)
(1.00006 8.58894e-05 0)
(1.00007 9.58552e-05 0)
(1.00008 0.000104654 0)
(1.00009 0.000112516 0)
(1.00011 0.000120158 0)
(1.00012 0.000127849 0)
(1.00013 0.000135309 0)
(1.00014 0.000142189 0)
(1.00015 0.000148433 0)
(1.00016 0.000154214 0)
(1.00017 0.000159694 0)
(1.00017 0.000164922 0)
(1 4.58539e-06 0)
(1 1.3276e-05 0)
(1.00001 2.14507e-05 0)
(1.00002 2.99613e-05 0)
(1.00002 3.89675e-05 0)
(1.00003 4.78151e-05 0)
(1.00005 5.61013e-05 0)
(1.00006 6.41905e-05 0)
(1.00007 7.24187e-05 0)
(1.00008 8.0529e-05 0)
(1.00009 8.80892e-05 0)
(1.0001 9.50111e-05 0)
(1.00011 0.000101539 0)
(1.00012 0.000107888 0)
(1.00014 0.00011405 0)
(1.00015 0.00011989 0)
(1.00016 0.000125315 0)
(1.00017 0.00013033 0)
(1.00018 0.00013499 0)
(1.00019 0.000139339 0)
(1 2.05077e-06 0)
(1 6.02318e-06 0)
(1.00001 9.8736e-06 0)
(1.00002 1.39101e-05 0)
(1.00003 1.81777e-05 0)
(1.00004 2.24712e-05 0)
(1.00005 2.6611e-05 0)
(1.00006 3.06307e-05 0)
(1.00007 3.46121e-05 0)
(1.00009 3.85172e-05 0)
(1.0001 4.22329e-05 0)
(1.00011 4.57105e-05 0)
(1.00012 4.89955e-05 0)
(1.00014 5.21505e-05 0)
(1.00015 5.51889e-05 0)
(1.00016 5.80816e-05 0)
(1.00017 6.07951e-05 0)
(1.00018 6.33212e-05 0)
(1.00019 6.56702e-05 0)
(1.0002 6.78598e-05 0)
(0.99942 0.000465316 0)
(0.998318 0.000443031 0)
(0.997223 0.000469343 0)
(0.996209 0.000530916 0)
(0.995259 0.000599998 0)
(0.994332 0.000662148 0)
(0.99344 0.000718279 0)
(0.992624 0.000760178 0)
(0.991869 0.00078099 0)
(0.991084 0.000786186 0)
(0.990193 0.0007867 0)
(0.989202 0.000794077 0)
(0.988185 0.000806213 0)
(0.987181 0.000815719 0)
(0.986162 0.00082563 0)
(0.985091 0.000836392 0)
(0.983981 0.000840769 0)
(0.982884 0.000836411 0)
(0.981846 0.000824684 0)
(0.980857 0.000808364 0)
(0.979863 0.000792829 0)
(0.978839 0.000780523 0)
(0.977814 0.000773269 0)
(0.976805 0.000774965 0)
(0.975793 0.000784781 0)
(0.974741 0.000798862 0)
(0.973631 0.000815975 0)
(0.972495 0.000832477 0)
(0.971381 0.000842654 0)
(0.970268 0.000846374 0)
(0.969116 0.000844773 0)
(0.96795 0.000836392 0)
(0.966811 0.000823884 0)
(0.965682 0.000812701 0)
(0.964531 0.000804696 0)
(0.963373 0.000801451 0)
(0.962227 0.000806246 0)
(0.961077 0.000818124 0)
(0.959899 0.000830996 0)
(0.958688 0.00083909 0)
(0.957459 0.000839581 0)
(0.956221 0.000833056 0)
(0.954983 0.000824112 0)
(0.95375 0.000818532 0)
(0.952527 0.000818857 0)
(0.951296 0.000823395 0)
(0.950036 0.000828013 0)
(0.948751 0.000829055 0)
(0.947463 0.000826701 0)
(0.946182 0.000824869 0)
(0.944893 0.000826044 0)
(0.943584 0.000827739 0)
(0.942261 0.000826258 0)
(0.940937 0.000822434 0)
(0.939611 0.000820956 0)
(0.938274 0.000824124 0)
(0.936921 0.000828345 0)
(0.935553 0.000827844 0)
(0.93418 0.000821311 0)
(0.932808 0.000814079 0)
(0.931434 0.000813248 0)
(0.930049 0.000820456 0)
(0.928642 0.000829341 0)
(0.927214 0.000830394 0)
(0.92578 0.000819123 0)
(0.924358 0.000800558 0)
(0.922958 0.000786396 0)
(0.921567 0.000786957 0)
(0.92016 0.000803768 0)
(0.918711 0.000827468 0)
(0.917216 0.000841869 0)
(0.915697 0.000831292 0)
(0.914205 0.000787001 0)
(0.912806 0.000709852 0)
(0.911558 0.000608782 0)
(0.910504 0.000496789 0)
(0.909661 0.000386649 0)
(0.909023 0.000287961 0)
(0.908564 0.000206027 0)
(0.908252 0.000142226 0)
(0.90805 9.51729e-05 0)
(0.907925 6.20303e-05 0)
(0.907853 3.95569e-05 0)
(0.907812 2.47681e-05 0)
(0.90779 1.5198e-05 0)
(0.907777 9.08324e-06 0)
(0.90777 5.3269e-06 0)
(0.907765 3.11792e-06 0)
(0.907761 1.86961e-06 0)
(0.907757 1.19226e-06 0)
(0.907753 8.37377e-07 0)
(0.90775 6.53576e-07 0)
(0.907746 5.55138e-07 0)
(0.907743 4.98018e-07 0)
(0.907739 4.60756e-07 0)
(0.907736 4.32522e-07 0)
(0.907733 4.07974e-07 0)
(0.907731 3.847e-07 0)
(0.907728 3.61775e-07 0)
(0.907726 3.38985e-07 0)
(0.907724 3.16419e-07 0)
(0.907722 2.94279e-07 0)
(0.90772 2.72782e-07 0)
(0.907718 2.52112e-07 0)
(0.907717 2.32406e-07 0)
(0.907715 2.13746e-07 0)
(0.907714 1.96179e-07 0)
(0.907713 1.79725e-07 0)
(0.907712 1.64385e-07 0)
(0.907711 1.50136e-07 0)
(0.90771 1.36935e-07 0)
(0.907709 1.24727e-07 0)
(0.907708 1.13456e-07 0)
(0.907708 1.03073e-07 0)
(0.907707 9.35371e-08 0)
(0.907706 8.48029e-08 0)
(0.907706 7.68169e-08 0)
(0.907705 6.9515e-08 0)
(0.907705 6.28367e-08 0)
(0.907705 5.67294e-08 0)
(0.907704 5.1156e-08 0)
(0.907704 4.60857e-08 0)
(0.907704 4.1484e-08 0)
(0.907703 3.73136e-08 0)
(0.907703 3.35323e-08 0)
(0.907703 3.01022e-08 0)
(0.907703 2.69951e-08 0)
(0.907703 2.41846e-08 0)
(0.907703 2.1645e-08 0)
(0.907702 1.93526e-08 0)
(0.907702 1.72828e-08 0)
(0.907702 1.5416e-08 0)
(0.907702 1.37411e-08 0)
(0.907702 1.22379e-08 0)
(0.907702 1.08928e-08 0)
(0.907702 9.68403e-09 0)
(0.907702 8.59658e-09 0)
(0.907702 7.62247e-09 0)
(0.907702 6.74987e-09 0)
(0.907702 5.97392e-09 0)
(0.907702 5.28068e-09 0)
(0.907702 4.66394e-09 0)
(0.907702 4.1175e-09 0)
(0.907702 3.63148e-09 0)
(0.907701 3.19952e-09 0)
(0.907701 2.81218e-09 0)
(0.907701 2.46193e-09 0)
(0.907701 2.16088e-09 0)
(0.907701 1.89528e-09 0)
(0.907701 1.66625e-09 0)
(0.907701 1.46113e-09 0)
(0.907701 1.27168e-09 0)
(0.907701 1.10682e-09 0)
(0.907701 9.6634e-10 0)
(0.907701 8.39033e-10 0)
(0.907701 7.26341e-10 0)
(0.907701 6.30046e-10 0)
(0.907701 5.39797e-10 0)
(0.907701 4.75618e-10 0)
(0.907701 4.11953e-10 0)
(0.907701 3.59527e-10 0)
(0.907701 3.13529e-10 0)
(0.907701 2.63858e-10 0)
(0.907701 2.45095e-10 0)
(0.907701 1.88234e-10 0)
(0.907701 1.55589e-10 0)
(0.907701 1.53198e-10 0)
(0.907701 9.975e-11 0)
(0.907701 1.15871e-10 0)
(0.907701 9.65592e-11 0)
(0.907701 6.80809e-11 0)
(0.907701 7.74345e-11 0)
(0.907701 5.79291e-11 0)
(0.907701 5.42472e-11 0)
(0.907701 2.89936e-11 0)
(0.907701 4.66617e-11 0)
(0.907701 5.81974e-12 0)
(0.907701 7.25919e-11 0)
(0.907701 -6.36289e-11 0)
(0.907701 1.89199e-10 0)
(0.907701 -2.89533e-10 0)
(0.907701 5.48257e-10 0)
(0.907701 -9.068e-10 0)
(0.907701 1.60178e-09 0)
(0.907701 -2.66772e-09 0)
(0.907701 4.47464e-09 0)
(0.907701 -7.25095e-09 0)
(0.907701 1.16203e-08 0)
(0.907702 -1.80548e-08 0)
(0.907701 2.75178e-08 0)
(0.907702 -4.05732e-08 0)
(0.9077 5.81373e-08 0)
(0.907703 -8.00511e-08 0)
(0.907699 1.05833e-07 0)
(0.907705 -1.32443e-07 0)
(0.907696 1.55651e-07 0)
(0.907709 -1.67153e-07 0)
(0.907691 1.58155e-07 0)
(0.907715 -1.17388e-07 0)
(0.907684 3.9354e-08 0)
(0.907723 7.64399e-08 0)
(0.907675 -2.10763e-07 0)
(0.907733 3.37777e-07 0)
(0.907666 -4.12519e-07 0)
(0.907739 4.01782e-07 0)
(0.907662 -2.84916e-07 0)
(0.907739 9.68064e-08 0)
(0.907666 1.05372e-07 0)
(0.907734 -2.18133e-07 0)
(0.907671 2.1188e-07 0)
(0.907731 -7.39647e-08 0)
(0.907669 -5.96704e-08 0)
(0.907735 1.56371e-07 0)
(0.907663 -4.3462e-08 0)
(0.907735 -2.5974e-08 0)
(0.907659 3.43394e-07 0)
(0.907725 -2.22848e-07 0)
(0.907647 6.7753e-07 0)
(0.907703 -3.45763e-07 0)
(0.907611 1.56807e-06 0)
(0.999794 0.000680715 0)
(0.999704 0.00065925 0)
(0.999626 0.000702533 0)
(0.999572 0.000793327 0)
(0.999528 0.000894588 0)
(0.999491 0.000986674 0)
(0.999485 0.00106981 0)
(0.999548 0.00113175 0)
(0.999686 0.0011576 0)
(0.999834 0.00115066 0)
(0.999924 0.00113057 0)
(0.999953 0.00111984 0)
(0.99997 0.0011193 0)
(1.00002 0.00111897 0)
(1.00007 0.001125 0)
(1.00008 0.0011415 0)
(1.00004 0.00115566 0)
(1 0.00115808 0)
(1.00002 0.00114876 0)
(1.00007 0.00113144 0)
(1.00011 0.00111236 0)
(1.00011 0.00109443 0)
(1.00011 0.00108119 0)
(1.00012 0.00107944 0)
(1.00013 0.00108892 0)
(1.00013 0.0011046 0)
(1.00009 0.00112464 0)
(1.00006 0.00114321 0)
(1.00006 0.00115245 0)
(1.0001 0.00115466 0)
(1.0001 0.00115325 0)
(1.00009 0.0011443 0)
(1.0001 0.0011297 0)
(1.0001 0.00111777 0)
(1.00007 0.00111043 0)
(1.00003 0.00110629 0)
(1 0.00110822 0)
(0.999991 0.00111781 0)
(0.999982 0.00113106 0)
(0.999968 0.00114216 0)
(0.999949 0.00114612 0)
(0.999925 0.00114106 0)
(0.999893 0.00113112 0)
(0.999861 0.00112297 0)
(0.999837 0.00112018 0)
(0.999816 0.00112286 0)
(0.999784 0.00112863 0)
(0.999741 0.0011329 0)
(0.999701 0.00113238 0)
(0.999671 0.00112914 0)
(0.999641 0.00112778 0)
(0.999601 0.00112904 0)
(0.999556 0.00112954 0)
(0.999514 0.00112734 0)
(0.999472 0.00112469 0)
(0.999428 0.00112483 0)
(0.999382 0.00112759 0)
(0.999337 0.00112918 0)
(0.999291 0.0011262 0)
(0.999242 0.00111979 0)
(0.999189 0.00111525 0)
(0.999136 0.00111691 0)
(0.999085 0.00112315 0)
(0.999039 0.00112654 0)
(0.998995 0.00111986 0)
(0.998949 0.00110283 0)
(0.998899 0.00108379 0)
(0.998843 0.00107444 0)
(0.998787 0.00108125 0)
(0.998738 0.00109942 0)
(0.998703 0.00111341 0)
(0.998692 0.00110346 0)
(0.99871 0.0010542 0)
(0.998758 0.000960781 0)
(0.998834 0.00083005 0)
(0.998934 0.000677293 0)
(0.999047 0.000520728 0)
(0.999165 0.000376378 0)
(0.999278 0.000254931 0)
(0.999379 0.000160947 0)
(0.999464 9.38371e-05 0)
(0.999532 4.96958e-05 0)
(0.999581 2.31815e-05 0)
(0.999615 8.95736e-06 0)
(0.999636 2.59445e-06 0)
(0.999647 7.03004e-07 0)
(0.999651 8.24912e-07 0)
(0.99965 1.5929e-06 0)
(0.999647 2.39504e-06 0)
(0.999641 3.00192e-06 0)
(0.999634 3.36612e-06 0)
(0.999628 3.51608e-06 0)
(0.999621 3.50472e-06 0)
(0.999615 3.38617e-06 0)
(0.999609 3.20475e-06 0)
(0.999603 2.99175e-06 0)
(0.999598 2.76756e-06 0)
(0.999594 2.54466e-06 0)
(0.999589 2.33016e-06 0)
(0.999586 2.12774e-06 0)
(0.999582 1.93901e-06 0)
(0.999579 1.76438e-06 0)
(0.999576 1.60361e-06 0)
(0.999573 1.4561e-06 0)
(0.999571 1.32108e-06 0)
(0.999569 1.19772e-06 0)
(0.999567 1.08513e-06 0)
(0.999565 9.82483e-07 0)
(0.999564 8.88982e-07 0)
(0.999562 8.03883e-07 0)
(0.999561 7.26477e-07 0)
(0.99956 6.56106e-07 0)
(0.999558 5.92163e-07 0)
(0.999557 5.34101e-07 0)
(0.999557 4.8142e-07 0)
(0.999556 4.33652e-07 0)
(0.999555 3.90361e-07 0)
(0.999554 3.5114e-07 0)
(0.999554 3.15621e-07 0)
(0.999553 2.83479e-07 0)
(0.999553 2.54419e-07 0)
(0.999552 2.28168e-07 0)
(0.999552 2.0447e-07 0)
(0.999551 1.83085e-07 0)
(0.999551 1.63802e-07 0)
(0.999551 1.46431e-07 0)
(0.999551 1.30799e-07 0)
(0.99955 1.16743e-07 0)
(0.99955 1.04103e-07 0)
(0.99955 9.27357e-08 0)
(0.99955 8.25288e-08 0)
(0.99955 7.33784e-08 0)
(0.99955 6.5201e-08 0)
(0.999549 5.78896e-08 0)
(0.999549 5.13509e-08 0)
(0.999549 4.54931e-08 0)
(0.999549 4.02577e-08 0)
(0.999549 3.55934e-08 0)
(0.999549 3.14469e-08 0)
(0.999549 2.7761e-08 0)
(0.999549 2.44723e-08 0)
(0.999549 2.15482e-08 0)
(0.999549 1.89582e-08 0)
(0.999549 1.66737e-08 0)
(0.999549 1.46478e-08 0)
(0.999549 1.28469e-08 0)
(0.999549 1.12345e-08 0)
(0.999549 9.83124e-09 0)
(0.999549 8.60219e-09 0)
(0.999549 7.53139e-09 0)
(0.999549 6.57475e-09 0)
(0.999549 5.71471e-09 0)
(0.999549 4.96488e-09 0)
(0.999549 4.31578e-09 0)
(0.999549 3.75441e-09 0)
(0.999549 3.25302e-09 0)
(0.999548 2.81727e-09 0)
(0.999548 2.4323e-09 0)
(0.999548 2.12042e-09 0)
(0.999548 1.82862e-09 0)
(0.999548 1.58307e-09 0)
(0.999548 1.36629e-09 0)
(0.999548 1.15899e-09 0)
(0.999548 1.02972e-09 0)
(0.999548 8.48377e-10 0)
(0.999548 7.11606e-10 0)
(0.999548 6.39556e-10 0)
(0.999548 5.18112e-10 0)
(0.999548 4.66427e-10 0)
(0.999548 4.14909e-10 0)
(0.999548 3.17934e-10 0)
(0.999548 2.9734e-10 0)
(0.999548 2.58318e-10 0)
(0.999548 2.12597e-10 0)
(0.999548 1.65691e-10 0)
(0.999548 1.60204e-10 0)
(0.999548 9.3061e-11 0)
(0.999548 1.7625e-10 0)
(0.999548 -1.808e-11 0)
(0.999548 3.12584e-10 0)
(0.999548 -3.2177e-10 0)
(0.999548 7.5931e-10 0)
(0.999548 -1.12476e-09 0)
(0.999548 2.13411e-09 0)
(0.999549 -3.40827e-09 0)
(0.999548 5.84754e-09 0)
(0.999549 -9.31783e-09 0)
(0.999548 1.50575e-08 0)
(0.999549 -2.31869e-08 0)
(0.999548 3.54685e-08 0)
(0.99955 -5.19694e-08 0)
(0.999547 7.45278e-08 0)
(0.999551 -1.01977e-07 0)
(0.999544 1.34535e-07 0)
(0.999555 -1.66759e-07 0)
(0.99954 1.94325e-07 0)
(0.99956 -2.04211e-07 0)
(0.999533 1.86902e-07 0)
(0.999568 -1.251e-07 0)
(0.999524 1.71084e-08 0)
(0.999578 1.40905e-07 0)
(0.999515 -3.1891e-07 0)
(0.999585 4.8237e-07 0)
(0.999509 -5.61328e-07 0)
(0.999588 5.2321e-07 0)
(0.99951 -3.31955e-07 0)
(0.999585 6.09225e-08 0)
(0.999515 2.26174e-07 0)
(0.99958 -3.65757e-07 0)
(0.999518 3.51151e-07 0)
(0.999579 -1.30075e-07 0)
(0.999515 -2.58178e-08 0)
(0.999582 1.67798e-07 0)
(0.999511 5.03646e-08 0)
(0.999581 -9.63714e-08 0)
(0.999508 5.86473e-07 0)
(0.999571 -3.03906e-07 0)
(0.999498 1.04035e-06 0)
(0.999551 -2.89974e-07 0)
(0.999465 2.38733e-06 0)
(0.999782 0.000502054 0)
(0.999726 0.000495153 0)
(0.999684 0.000514951 0)
(0.99965 0.000559473 0)
(0.999609 0.000617751 0)
(0.999568 0.000680052 0)
(0.999553 0.000741959 0)
(0.999594 0.000797731 0)
(0.9997 0.000835165 0)
(0.999825 0.000848525 0)
(0.999917 0.000845514 0)
(0.999965 0.000837801 0)
(1 0.000831654 0)
(1.00007 0.000825898 0)
(1.00016 0.000823688 0)
(1.0002 0.000832727 0)
(1.00017 0.000850155 0)
(1.00015 0.000863751 0)
(1.00017 0.000867248 0)
(1.00024 0.000864151 0)
(1.00029 0.00085857 0)
(1.0003 0.000850514 0)
(1.00032 0.000841075 0)
(1.00036 0.000836274 0)
(1.0004 0.000841221 0)
(1.00042 0.000854594 0)
(1.00042 0.000871493 0)
(1.0004 0.00088591 0)
(1.00044 0.000893224 0)
(1.0005 0.000894842 0)
(1.00054 0.000893601 0)
(1.00056 0.000888455 0)
(1.0006 0.000881181 0)
(1.00064 0.0008778 0)
(1.00065 0.000879734 0)
(1.00064 0.000883676 0)
(1.00065 0.000888642 0)
(1.00068 0.000895019 0)
(1.00072 0.000900931 0)
(1.00075 0.000904603 0)
(1.00078 0.000906007 0)
(1.0008 0.000905436 0)
(1.00082 0.000903638 0)
(1.00084 0.000902367 0)
(1.00087 0.000903379 0)
(1.0009 0.000907026 0)
(1.00093 0.00091145 0)
(1.00094 0.0009137 0)
(1.00096 0.000913082 0)
(1.00099 0.000912414 0)
(1.00103 0.000914082 0)
(1.00105 0.000916482 0)
(1.00107 0.000916655 0)
(1.0011 0.000915034 0)
(1.00113 0.000914983 0)
(1.00116 0.000917941 0)
(1.00119 0.000921068 0)
(1.00122 0.000920374 0)
(1.00125 0.000915511 0)
(1.00129 0.000910803 0)
(1.00132 0.000911205 0)
(1.00135 0.000916948 0)
(1.00139 0.000922126 0)
(1.00143 0.000919095 0)
(1.00147 0.000905257 0)
(1.00152 0.000886421 0)
(1.00156 0.000873572 0)
(1.0016 0.000875017 0)
(1.00165 0.000889392 0)
(1.00171 0.000904271 0)
(1.00178 0.000901202 0)
(1.00187 0.000864035 0)
(1.00197 0.000785906 0)
(1.00206 0.00067171 0)
(1.00212 0.000535637 0)
(1.00216 0.000395735 0)
(1.00217 0.000268303 0)
(1.00216 0.000164177 0)
(1.00212 8.76272e-05 0)
(1.00207 3.73708e-05 0)
(1.00201 8.65675e-06 0)
(1.00196 -4.57608e-06 0)
(1.00191 -8.07366e-06 0)
(1.00187 -6.37101e-06 0)
(1.00183 -2.47332e-06 0)
(1.0018 1.78387e-06 0)
(1.00177 5.27977e-06 0)
(1.00175 7.65601e-06 0)
(1.00173 8.99944e-06 0)
(1.00172 9.54228e-06 0)
(1.00171 9.5326e-06 0)
(1.0017 9.17958e-06 0)
(1.00169 8.63706e-06 0)
(1.00168 8.00771e-06 0)
(1.00167 7.35506e-06 0)
(1.00167 6.71593e-06 0)
(1.00166 6.10987e-06 0)
(1.00165 5.54589e-06 0)
(1.00165 5.02686e-06 0)
(1.00164 4.5523e-06 0)
(1.00164 4.11999e-06 0)
(1.00164 3.72702e-06 0)
(1.00163 3.37025e-06 0)
(1.00163 3.04662e-06 0)
(1.00163 2.7532e-06 0)
(1.00163 2.48725e-06 0)
(1.00162 2.24621e-06 0)
(1.00162 2.02779e-06 0)
(1.00162 1.82988e-06 0)
(1.00162 1.6506e-06 0)
(1.00162 1.48821e-06 0)
(1.00161 1.34118e-06 0)
(1.00161 1.20808e-06 0)
(1.00161 1.08763e-06 0)
(1.00161 9.78656e-07 0)
(1.00161 8.80083e-07 0)
(1.00161 7.90945e-07 0)
(1.00161 7.10376e-07 0)
(1.00161 6.37603e-07 0)
(1.00161 5.71919e-07 0)
(1.00161 5.12667e-07 0)
(1.00161 4.5923e-07 0)
(1.00161 4.11045e-07 0)
(1.00161 3.67614e-07 0)
(1.00161 3.28507e-07 0)
(1.00161 2.93343e-07 0)
(1.0016 2.6176e-07 0)
(1.0016 2.33401e-07 0)
(1.0016 2.07928e-07 0)
(1.0016 1.85045e-07 0)
(1.0016 1.64523e-07 0)
(1.0016 1.46157e-07 0)
(1.0016 1.29757e-07 0)
(1.0016 1.15108e-07 0)
(1.0016 1.02011e-07 0)
(1.0016 9.0289e-08 0)
(1.0016 7.98318e-08 0)
(1.0016 7.05294e-08 0)
(1.0016 6.22737e-08 0)
(1.0016 5.49299e-08 0)
(1.0016 4.83812e-08 0)
(1.0016 4.25608e-08 0)
(1.0016 3.74123e-08 0)
(1.0016 3.2883e-08 0)
(1.0016 2.88704e-08 0)
(1.0016 2.53075e-08 0)
(1.0016 2.21247e-08 0)
(1.0016 1.93394e-08 0)
(1.0016 1.69054e-08 0)
(1.0016 1.47797e-08 0)
(1.0016 1.28897e-08 0)
(1.0016 1.12023e-08 0)
(1.0016 9.73205e-09 0)
(1.0016 8.45821e-09 0)
(1.0016 7.35862e-09 0)
(1.0016 6.37666e-09 0)
(1.0016 5.52104e-09 0)
(1.0016 4.77202e-09 0)
(1.0016 4.14523e-09 0)
(1.0016 3.57944e-09 0)
(1.0016 3.07595e-09 0)
(1.0016 2.64854e-09 0)
(1.0016 2.25784e-09 0)
(1.0016 1.96222e-09 0)
(1.0016 1.67266e-09 0)
(1.0016 1.40781e-09 0)
(1.0016 1.21432e-09 0)
(1.0016 1.0832e-09 0)
(1.0016 8.83209e-10 0)
(1.0016 8.0122e-10 0)
(1.0016 6.47016e-10 0)
(1.0016 5.34153e-10 0)
(1.0016 5.03737e-10 0)
(1.0016 4.05571e-10 0)
(1.0016 3.45155e-10 0)
(1.0016 2.85535e-10 0)
(1.0016 2.36706e-10 0)
(1.0016 2.47364e-10 0)
(1.0016 1.38872e-10 0)
(1.0016 2.77198e-10 0)
(1.0016 -3.72122e-11 0)
(1.0016 4.25721e-10 0)
(1.0016 -4.06118e-10 0)
(1.0016 1.04977e-09 0)
(1.0016 -1.44375e-09 0)
(1.0016 2.72348e-09 0)
(1.0016 -4.11784e-09 0)
(1.0016 6.93169e-09 0)
(1.0016 -1.04636e-08 0)
(1.0016 1.64577e-08 0)
(1.0016 -2.39827e-08 0)
(1.0016 3.51789e-08 0)
(1.00161 -4.82357e-08 0)
(1.0016 6.50526e-08 0)
(1.00161 -8.10019e-08 0)
(1.00159 9.63462e-08 0)
(1.00161 -1.01049e-07 0)
(1.00159 9.2934e-08 0)
(1.00162 -5.69171e-08 0)
(1.00158 -4.88729e-09 0)
(1.00163 1.01359e-07 0)
(1.00157 -2.09495e-07 0)
(1.00164 3.17621e-07 0)
(1.00156 -3.6626e-07 0)
(1.00164 3.44402e-07 0)
(1.00156 -2.00274e-07 0)
(1.00164 1.91054e-09 0)
(1.00157 2.34802e-07 0)
(1.00163 -3.48943e-07 0)
(1.00157 3.77387e-07 0)
(1.00163 -1.95998e-07 0)
(1.00157 1.0786e-07 0)
(1.00164 4.84397e-08 0)
(1.00157 2.12549e-07 0)
(1.00163 -1.82371e-07 0)
(1.00156 6.61472e-07 0)
(1.00162 -2.50047e-07 0)
(1.00155 9.33207e-07 0)
(1.0016 1.03506e-07 0)
(1.00152 1.82105e-06 0)
(0.999775 0.000535302 0)
(0.999738 0.000535453 0)
(0.999725 0.000551832 0)
(0.99972 0.000588483 0)
(0.999698 0.000642588 0)
(0.999665 0.000704759 0)
(0.999651 0.000765162 0)
(0.999687 0.000820553 0)
(0.999777 0.000868139 0)
(0.999881 0.000904053 0)
(0.999953 0.000927197 0)
(0.999986 0.00093854 0)
(1.00002 0.000941425 0)
(1.00008 0.000939205 0)
(1.00017 0.000933964 0)
(1.00021 0.000933229 0)
(1.00019 0.000945534 0)
(1.00016 0.000963935 0)
(1.00018 0.000974418 0)
(1.00024 0.000977389 0)
(1.00029 0.000980724 0)
(1.0003 0.000983495 0)
(1.00032 0.000979888 0)
(1.00036 0.000971438 0)
(1.00042 0.000967511 0)
(1.00045 0.000974939 0)
(1.00044 0.000991693 0)
(1.00043 0.00100865 0)
(1.00045 0.00101865 0)
(1.00051 0.00102338 0)
(1.00055 0.00102572 0)
(1.00056 0.0010229 0)
(1.0006 0.00101474 0)
(1.00065 0.00100887 0)
(1.00066 0.00101081 0)
(1.00065 0.00101681 0)
(1.00066 0.00102165 0)
(1.0007 0.00102516 0)
(1.00074 0.00102859 0)
(1.00077 0.00103149 0)
(1.0008 0.00103352 0)
(1.00082 0.00103562 0)
(1.00083 0.00103749 0)
(1.00085 0.00103693 0)
(1.00088 0.00103406 0)
(1.00092 0.00103284 0)
(1.00095 0.00103584 0)
(1.00096 0.00104009 0)
(1.00098 0.00104124 0)
(1.00101 0.00103957 0)
(1.00105 0.00103854 0)
(1.00108 0.00103933 0)
(1.0011 0.00104001 0)
(1.00113 0.00103924 0)
(1.00116 0.00103789 0)
(1.00119 0.00103723 0)
(1.00122 0.00103713 0)
(1.00126 0.00103645 0)
(1.00129 0.00103438 0)
(1.00132 0.00103119 0)
(1.00136 0.00102798 0)
(1.00139 0.00102556 0)
(1.00143 0.00102348 0)
(1.00148 0.00102 0)
(1.00153 0.00101343 0)
(1.00157 0.00100367 0)
(1.00161 0.000992541 0)
(1.00165 0.000982321 0)
(1.00169 0.000973453 0)
(1.00176 0.00096299 0)
(1.00184 0.000944843 0)
(1.00193 0.000911863 0)
(1.00202 0.000858735 0)
(1.0021 0.000784196 0)
(1.00215 0.000691643 0)
(1.00217 0.000588067 0)
(1.00216 0.000482029 0)
(1.00213 0.00038155 0)
(1.00209 0.000292622 0)
(1.00203 0.000218568 0)
(1.00198 0.000160175 0)
(1.00193 0.000116314 0)
(1.00189 8.47247e-05 0)
(1.00186 6.27304e-05 0)
(1.00183 4.77138e-05 0)
(1.0018 3.75432e-05 0)
(1.00178 3.07112e-05 0)
(1.00177 2.60551e-05 0)
(1.00175 2.27344e-05 0)
(1.00174 2.02084e-05 0)
(1.00173 1.81555e-05 0)
(1.00172 1.63966e-05 0)
(1.00171 1.4838e-05 0)
(1.0017 1.34322e-05 0)
(1.0017 1.2155e-05 0)
(1.00169 1.0993e-05 0)
(1.00168 9.93644e-06 0)
(1.00168 8.97746e-06 0)
(1.00167 8.10842e-06 0)
(1.00167 7.32184e-06 0)
(1.00167 6.61046e-06 0)
(1.00166 5.96735e-06 0)
(1.00166 5.38608e-06 0)
(1.00166 4.86074e-06 0)
(1.00165 4.38594e-06 0)
(1.00165 3.9568e-06 0)
(1.00165 3.56884e-06 0)
(1.00165 3.21807e-06 0)
(1.00165 2.90088e-06 0)
(1.00164 2.61406e-06 0)
(1.00164 2.35473e-06 0)
(1.00164 2.12027e-06 0)
(1.00164 1.90834e-06 0)
(1.00164 1.71678e-06 0)
(1.00164 1.54365e-06 0)
(1.00164 1.38721e-06 0)
(1.00164 1.2459e-06 0)
(1.00163 1.11832e-06 0)
(1.00163 1.00321e-06 0)
(1.00163 8.99396e-07 0)
(1.00163 8.05799e-07 0)
(1.00163 7.21426e-07 0)
(1.00163 6.45388e-07 0)
(1.00163 5.7691e-07 0)
(1.00163 5.1531e-07 0)
(1.00163 4.59966e-07 0)
(1.00163 4.10279e-07 0)
(1.00163 3.65674e-07 0)
(1.00163 3.25624e-07 0)
(1.00163 2.89671e-07 0)
(1.00163 2.57455e-07 0)
(1.00163 2.28637e-07 0)
(1.00163 2.02907e-07 0)
(1.00163 1.79923e-07 0)
(1.00163 1.59384e-07 0)
(1.00163 1.41025e-07 0)
(1.00163 1.24661e-07 0)
(1.00163 1.10106e-07 0)
(1.00163 9.71782e-08 0)
(1.00163 8.5677e-08 0)
(1.00163 7.54355e-08 0)
(1.00163 6.63463e-08 0)
(1.00163 5.83108e-08 0)
(1.00163 5.12369e-08 0)
(1.00163 4.49636e-08 0)
(1.00163 3.93966e-08 0)
(1.00163 3.44379e-08 0)