/*--------------------------------*- C++ -*----------------------------------*\
| =========                 |                                                 |
| \\      /  F ield         | OpenFOAM: The Open Source CFD Toolbox           |
|  \\    /   O peration     | Version:  v1906                                 |
|   \\  /    A nd           | Web:      www.OpenFOAM.com                      |
|    \\/     M anipulation  |                                                 |
\*---------------------------------------------------------------------------*/
FoamFile
{
    version     2.0;
    format      ascii;
    class       volScalarField;
    location    "0.05";
    object      p;
}
// * * * * * * * * * * * * * * * * * * * * * * * * * * * * * * * * * * * * * //

dimensions      [0 2 -2 0 0 0 0];


internalField   nonuniform List<scalar> 
800
(
3.08824e-08
0.0107931
0.0250031
0.038393
0.0521401
0.06621
0.081005
0.0969706
0.114704
0.135009
0.158986
0.188148
0.224594
0.271377
0.333242
0.414803
0.518575
0.689444
1.06372
1.22966
-0.00762267
0.00116481
0.0143014
0.026827
0.0397338
0.0528502
0.066506
0.0810574
0.0969771
0.114872
0.135512
0.159854
0.189007
0.224166
0.266647
0.315577
0.361061
0.399192
0.452718
0.283758
-0.0217734
-0.0160831
-0.0047571
0.00630463
0.0177334
0.029202
0.0408959
0.0530147
0.0658063
0.0795263
0.0943759
0.110384
0.12715
0.14339
0.156345
0.159842
0.14009
0.0806191
-0.0314081
-0.275001
-0.038077
-0.0348093
-0.025206
-0.0156308
-0.00577257
0.00392366
0.013483
0.022931
0.0322647
0.0413619
0.0498528
0.0569193
0.0609758
0.0592217
0.0471799
0.017982
-0.0382393
-0.1313
-0.270284
-0.476641
-0.056447
-0.054872
-0.0468638
-0.038778
-0.0305725
-0.0227813
-0.0155422
-0.00901115
-0.00344432
0.000681656
0.00251635
0.0006391
-0.00717589
-0.0241697
-0.0546479
-0.103828
-0.17711
-0.278071
-0.408317
-0.568795
-0.0775111
-0.077123
-0.0706632
-0.0641221
-0.0577023
-0.0520037
-0.047321
-0.0439846
-0.0424789
-0.043565
-0.0484146
-0.0587371
-0.0768611
-0.10569
-0.148437
-0.208114
-0.286674
-0.383849
-0.49688
-0.620415
-0.101565
-0.101947
-0.0969921
-0.0920485
-0.0875354
-0.084095
-0.082156
-0.0821948
-0.0848641
-0.0910941
-0.102174
-0.119781
-0.145918
-0.1827
-0.231966
-0.294767
-0.370777
-0.457849
-0.552081
-0.648146
-0.128751
-0.129537
-0.126017
-0.122702
-0.120178
-0.119106
-0.120006
-0.123451
-0.130175
-0.141141
-0.157552
-0.180803
-0.212324
-0.253315
-0.304405
-0.365307
-0.43458
-0.509615
-0.586962
-0.662802
-0.159196
-0.160083
-0.157908
-0.15623
-0.155736
-0.15707
-0.160797
-0.167515
-0.177945
-0.192948
-0.213494
-0.240552
-0.274924
-0.317013
-0.366605
-0.422725
-0.483629
-0.546982
-0.610196
-0.670809
-0.193006
-0.19377
-0.192832
-0.192774
-0.194295
-0.197993
-0.204411
-0.214104
-0.227687
-0.245826
-0.26917
-0.298242
-0.333293
-0.37416
-0.420171
-0.470135
-0.522444
-0.575279
-0.626866
-0.67569
-0.230247
-0.230737
-0.23091
-0.232424
-0.235887
-0.241814
-0.250665
-0.262887
-0.278924
-0.299193
-0.324013
-0.353516
-0.387558
-0.425652
-0.466963
-0.510363
-0.554558
-0.598246
-0.640273
-0.679737
-0.27093
-0.271053
-0.272201
-0.275205
-0.280478
-0.288412
-0.299337
-0.313537
-0.331253
-0.352649
-0.377758
-0.406428
-0.438278
-0.472698
-0.508875
-0.545877
-0.582746
-0.618603
-0.652731
-0.684607
-0.314998
-0.31471
-0.316691
-0.321069
-0.327975
-0.337631
-0.350201
-0.365783
-0.384413
-0.406033
-0.430466
-0.457387
-0.486319
-0.516659
-0.547716
-0.578784
-0.609198
-0.638396
-0.665951
-0.691576
-0.362312
-0.3616
-0.364282
-0.369908
-0.378243
-0.389311
-0.403085
-0.419477
-0.438339
-0.45945
-0.4825
-0.507092
-0.53275
-0.558953
-0.585168
-0.610897
-0.635709
-0.659263
-0.681324
-0.701749
-0.412622
-0.411502
-0.414791
-0.421559
-0.431145
-0.443336
-0.45792
-0.474638
-0.493199
-0.513277
-0.534503
-0.556478
-0.578783
-0.60101
-0.622781
-0.643771
-0.663724
-0.682461
-0.699873
-0.715912
-0.465506
-0.464009
-0.467895
-0.475794
-0.486552
-0.499693
-0.514823
-0.53154
-0.549455
-0.568194
-0.587392
-0.606704
-0.625805
-0.644408
-0.662271
-0.679205
-0.695073
-0.709796
-0.723338
-0.735703
-0.520279
-0.518421
-0.522996
-0.532164
-0.544198
-0.55833
-0.573995
-0.59067
-0.60789
-0.625256
-0.642426
-0.659117
-0.675105
-0.690225
-0.704369
-0.717479
-0.729539
-0.740566
-0.750601
-0.759705
-0.576093
-0.574123
-0.579712
-0.590435
-0.603932
-0.61916
-0.635449
-0.652224
-0.669019
-0.685469
-0.70129
-0.716271
-0.730259
-0.743155
-0.754907
-0.765501
-0.77496
-0.783332
-0.790686
-0.797087
-0.631975
-0.631769
-0.640141
-0.653698
-0.669459
-0.68614
-0.702985
-0.719395
-0.734925
-0.749284
-0.76231
-0.773944
-0.784209
-0.793182
-0.800976
-0.807722
-0.813556
-0.818605
-0.822985
-0.826832
-0.680398
-0.685085
-0.699474
-0.71906
-0.740551
-0.762558
-0.784278
-0.805051
-0.824354
-0.841822
-0.857236
-0.870504
-0.881633
-0.890716
-0.8979
-0.903372
-0.90734
-0.910021
-0.911627
-0.912285
-1.1724
-2.23853
-2.22469
-2.01898
-1.83914
-1.6966
-1.58426
-1.49384
-1.41825
-1.3527
-1.29405
-1.24016
-1.18958
-1.14131
-1.09477
-1.04963
-1.00622
-0.96347
-0.927811
-0.881238
-0.8341
-1.50568
-1.69127
-1.70126
-1.65471
-1.58669
-1.51558
-1.44877
-1.3875
-1.33118
-1.27878
-1.22931
-1.18196
-1.1361
-1.0914
-1.04765
-1.00535
-0.963372
-0.92852
-0.882219
-0.760951
-1.15807
-1.37233
-1.46652
-1.4917
-1.47662
-1.4415
-1.39822
-1.35239
-1.30641
-1.26114
-1.21672
-1.17305
-1.12993
-1.08728
-1.04509
-1.00399
-0.962866
-0.928892
-0.882616
-0.754175
-1.01416
-1.19731
-1.30609
-1.36029
-1.37641
-1.36808
-1.34528
-1.31436
-1.27905
-1.24142
-1.20253
-1.1629
-1.12278
-1.08237
-1.04187
-1.00204
-0.961853
-0.928671
-0.882433
-0.751321
-0.929949
-1.07686
-1.18202
-1.2489
-1.28424
-1.29564
-1.29009
-1.27307
-1.24848
-1.21894
-1.1861
-1.15097
-1.11423
-1.07635
-1.03776
-0.999317
-0.960222
-0.927777
-0.881719
-0.748348
-0.875761
-0.99166
-1.0861
-1.1558
-1.20153
-1.2264
-1.23443
-1.22957
-1.21515
-1.19375
-1.16727
-1.13705
-1.10404
-1.06899
-1.03254
-0.995655
-0.957809
-0.926077
-0.880371
-0.743219
-0.838703
-0.930792
-1.01244
-1.0791
-1.12884
-1.16188
-1.17984
-1.18499
-1.17969
-1.16611
-1.14606
-1.12097
-1.092
-1.06006
-1.02599
-0.990829
-0.954391
-0.923374
-0.878196
-0.736369
-0.810683
-0.884864
-0.954417
-1.01541
-1.06516
-1.1024
-1.12706
-1.13999
-1.14251
-1.13614
-1.12237
-1.10254
-1.07782
-1.04925
-1.01779
-0.984547
-0.949681
-0.919418
-0.874931
-0.729086
-0.788273
-0.848691
-0.907564
-0.961954
-1.00932
-1.04782
-1.07646
-1.09503
-1.10392
-1.10394
-1.09609
-1.08147
-1.06115
-1.03617
-1.00756
-0.976444
-0.943322
-0.913879
-0.870226
-0.72247
-0.770225
-0.819742
-0.869325
-0.916923
-0.960459
-0.998095
-1.02843
-1.05061
-1.0643
-1.06965
-1.06716
-1.05753
-1.04164
-1.0204
-0.994851
-0.96609
-0.934884
-0.906358
-0.863631
-0.717506
-0.756237
-0.796856
-0.838334
-0.879296
-0.918184
-0.953414
-0.983549
-1.00743
-1.02429
-1.03373
-1.03577
-1.03069
-1.01905
-1.0016
-0.979253
-0.953032
-0.923896
-0.896388
-0.854606
-0.7151
-0.746478
-0.779655
-0.814014
-0.84866
-0.882484
-0.914243
-0.942659
-0.966543
-0.984901
-0.997016
-1.00248
-1.00122
-0.993438
-0.979613
-0.960464
-0.93688
-0.909903
-0.883475
-0.84255
-0.716073
-0.741336
-0.768192
-0.796275
-0.825014
-0.853649
-0.881259
-0.906812
-0.929238
-0.947522
-0.960792
-0.968389
-0.969919
-0.965272
-0.95463
-0.938455
-0.91743
-0.892571
-0.867183
-0.826884
-0.72124
-0.741348
-0.76278
-0.785321
-0.808607
-0.832132
-0.855239
-0.877142
-0.89696
-0.913781
-0.926724
-0.935024
-0.938088
-0.935557
-0.927335
-0.91361
-0.894804
-0.871811
-0.847243
-0.807158
-0.731181
-0.746919
-0.763695
-0.781372
-0.799713
-0.818375
-0.836897
-0.8547
-0.871101
-0.885342
-0.896637
-0.904226
-0.907445
-0.905777
-0.898915
-0.886788
-0.869551
-0.847897
-0.823685
-0.783194
-0.747377
-0.759324
-0.771994
-0.785299
-0.79908
-0.813101
-0.827041
-0.840481
-0.852907
-0.863721
-0.872268
-0.877868
-0.879873
-0.877709
-0.870936
-0.859284
-0.842663
-0.821535
-0.796953
-0.755248
-0.768295
-0.77708
-0.78634
-0.79598
-0.805861
-0.815793
-0.825523
-0.834731
-0.843024
-0.849943
-0.854971
-0.857553
-0.857123
-0.853138
-0.845116
-0.832664
-0.815505
-0.79387
-0.767977
-0.724145
-0.802813
-0.808364
-0.813986
-0.81963
-0.825196
-0.830548
-0.835512
-0.839864
-0.843325
-0.845557
-0.846165
-0.844707
-0.840703
-0.833659
-0.82309
-0.808524
-0.789551
-0.766205
-0.737881
-0.690962
-0.830459
-0.834128
-0.837778
-0.841251
-0.844406
-0.847076
-0.849055
-0.850106
-0.849958
-0.848313
-0.844845
-0.839208
-0.831037
-0.819952
-0.805563
-0.787448
-0.765184
-0.738662
-0.706434
-0.655494
-0.911988
-0.910808
-0.908892
-0.906234
-0.902718
-0.898218
-0.892615
-0.885787
-0.877602
-0.86792
-0.856587
-0.843435
-0.828276
-0.810888
-0.790988
-0.768199
-0.742063
-0.711974
-0.674647
-0.619678
)
;

boundaryField
{
    zeroGradient_plane
    {
        type            zeroGradient;
    }
    inlet
    {
        type            zeroGradient;
    }
    plate
    {
        type            zeroGradient;
    }
    frontAndBack
    {
        type            empty;
    }
}


// ************************************************************************* //
