/*--------------------------------*- C++ -*----------------------------------*\
| =========                 |                                                 |
| \\      /  F ield         | OpenFOAM: The Open Source CFD Toolbox           |
|  \\    /   O peration     | Version:  v1906                                 |
|   \\  /    A nd           | Web:      www.OpenFOAM.com                      |
|    \\/     M anipulation  |                                                 |
\*---------------------------------------------------------------------------*/
FoamFile
{
    version     2.0;
    format      ascii;
    class       surfaceScalarField;
    location    "0.05";
    object      phi;
}
// * * * * * * * * * * * * * * * * * * * * * * * * * * * * * * * * * * * * * //

dimensions      [0 3 -1 0 0 0 0];
oriented        oriented;


internalField   nonuniform List<scalar> 
1540
(
1.97573e-05
3.12745e-06
1.95752e-05
9.70425e-06
1.93893e-05
1.51075e-05
1.9207e-05
1.92331e-05
1.90301e-05
2.22392e-05
1.88584e-05
2.43683e-05
1.86912e-05
2.58637e-05
1.85275e-05
2.69297e-05
1.83657e-05
2.77151e-05
1.82038e-05
2.83107e-05
1.80391e-05
2.87524e-05
1.78675e-05
2.90294e-05
1.7683e-05
2.90928e-05
1.74759e-05
2.8864e-05
1.72308e-05
2.82417e-05
1.69246e-05
2.71046e-05
1.65131e-05
2.53215e-05
1.58658e-05
2.27638e-05
1.46911e-05
1.9194e-05
1.39121e-05
1.28735e-05
2.1509e-05
3.27828e-06
2.13126e-05
9.90063e-06
2.11113e-05
1.53088e-05
2.09149e-05
1.94295e-05
2.07247e-05
2.24294e-05
2.05411e-05
2.45519e-05
2.03636e-05
2.60412e-05
2.01915e-05
2.71018e-05
2.00239e-05
2.78827e-05
1.98602e-05
2.84744e-05
1.96992e-05
2.89133e-05
1.95401e-05
2.91886e-05
1.93815e-05
2.92514e-05
1.92224e-05
2.90231e-05
1.90613e-05
2.84028e-05
1.88954e-05
2.72706e-05
1.87233e-05
2.54935e-05
1.85462e-05
2.29409e-05
1.8298e-05
1.94422e-05
1.47039e-05
1.75061e-05
2.34205e-05
3.43232e-06
2.32118e-05
1.01093e-05
2.29969e-05
1.55237e-05
2.27879e-05
1.96385e-05
2.25873e-05
2.263e-05
2.23957e-05
2.47435e-05
2.22135e-05
2.62234e-05
2.20412e-05
2.72741e-05
2.18801e-05
2.80438e-05
2.17322e-05
2.86223e-05
2.16011e-05
2.90444e-05
2.14923e-05
2.92974e-05
2.14144e-05
2.93293e-05
2.13796e-05
2.90578e-05
2.14041e-05
2.83782e-05
2.15037e-05
2.7171e-05
2.16812e-05
2.5316e-05
2.18994e-05
2.27227e-05
2.19954e-05
1.93463e-05
1.52376e-05
2.14617e-05
2.55058e-05
3.58492e-06
2.52886e-05
1.03266e-05
2.5063e-05
1.57492e-05
2.48449e-05
1.98567e-05
2.46382e-05
2.28367e-05
2.44447e-05
2.4937e-05
2.42662e-05
2.64019e-05
2.41055e-05
2.74348e-05
2.3967e-05
2.81823e-05
2.38577e-05
2.87316e-05
2.37875e-05
2.91146e-05
2.37704e-05
2.93145e-05
2.38247e-05
2.9275e-05
2.39722e-05
2.89103e-05
2.42334e-05
2.81171e-05
2.46146e-05
2.67898e-05
2.50854e-05
2.48451e-05
2.55494e-05
2.22588e-05
2.58e-05
1.90956e-05
1.55498e-05
2.54878e-05
2.778e-05
3.73151e-06
2.75596e-05
1.0547e-05
2.73286e-05
1.59802e-05
2.71069e-05
2.00783e-05
2.69009e-05
2.30427e-05
2.67143e-05
2.51236e-05
2.6551e-05
2.65652e-05
2.64171e-05
2.75687e-05
2.63216e-05
2.82778e-05
2.62772e-05
2.87761e-05
2.63008e-05
2.9091e-05
2.64137e-05
2.92016e-05
2.66395e-05
2.90491e-05
2.69998e-05
2.855e-05
2.75037e-05
2.76133e-05
2.81315e-05
2.6162e-05
2.88151e-05
2.41615e-05
2.94256e-05
2.16483e-05
2.97736e-05
1.87475e-05
1.56751e-05
2.96483e-05
3.02593e-05
3.86752e-06
3.00428e-05
1.07635e-05
2.9814e-05
1.6209e-05
2.95972e-05
2.02952e-05
2.94017e-05
2.32381e-05
2.92338e-05
2.52916e-05
2.91006e-05
2.66984e-05
2.90122e-05
2.7657e-05
2.89828e-05
2.83072e-05
2.90308e-05
2.8728e-05
2.91788e-05
2.8943e-05
2.94514e-05
2.8929e-05
2.98708e-05
2.86298e-05
3.04482e-05
2.79726e-05
3.11722e-05
2.68893e-05
3.19951e-05
2.53392e-05
3.28238e-05
2.33327e-05
3.35258e-05
2.09463e-05
3.39525e-05
1.83209e-05
1.56423e-05
3.39853e-05
3.29612e-05
3.9885e-06
3.27575e-05
1.09672e-05
3.25416e-05
1.6425e-05
3.23411e-05
2.04956e-05
3.21693e-05
2.341e-05
3.20354e-05
2.54255e-05
3.19503e-05
2.67834e-05
3.19287e-05
2.76786e-05
3.19894e-05
2.82465e-05
3.21554e-05
2.8562e-05
3.24517e-05
2.86468e-05
3.29009e-05
2.84797e-05
3.35169e-05
2.80138e-05
3.42945e-05
2.7195e-05
3.52005e-05
2.59833e-05
3.61663e-05
2.43733e-05
3.70915e-05
2.24075e-05
3.78593e-05
2.01785e-05
3.83639e-05
1.78163e-05
1.54645e-05
3.85417e-05
3.59048e-05
4.09025e-06
3.57246e-05
1.11474e-05
3.55349e-05
1.66147e-05
3.5366e-05
2.06645e-05
3.52344e-05
2.35416e-05
3.5153e-05
2.55069e-05
3.51366e-05
2.67998e-05
3.52039e-05
2.76113e-05
3.53774e-05
2.8073e-05
3.56817e-05
2.82577e-05
3.61402e-05
2.81883e-05
3.67687e-05
2.78513e-05
3.75678e-05
2.72147e-05
3.85153e-05
2.62475e-05
3.95606e-05
2.4938e-05
4.06261e-05
2.33078e-05
4.16172e-05
2.14164e-05
4.24406e-05
1.93551e-05
4.30248e-05
1.72322e-05
1.51526e-05
4.33366e-05
3.9111e-05
4.1688e-06
3.89663e-05
1.1292e-05
3.88191e-05
1.67619e-05
3.87002e-05
2.07835e-05
3.86288e-05
2.3613e-05
3.86213e-05
2.55144e-05
3.86956e-05
2.67255e-05
3.88733e-05
2.74337e-05
3.91781e-05
2.77681e-05
3.96334e-05
2.78024e-05
4.02568e-05
2.75649e-05
4.10538e-05
2.70543e-05
4.20111e-05
2.62574e-05
4.30922e-05
2.51664e-05
4.42372e-05
2.3793e-05
4.53694e-05
2.21757e-05
4.64074e-05
2.03783e-05
4.72807e-05
1.84819e-05
4.79422e-05
1.65707e-05
1.47198e-05
4.8375e-05
4.26021e-05
4.22045e-06
4.25063e-05
1.13878e-05
4.24203e-05
1.68479e-05
4.2373e-05
2.08308e-05
4.23848e-05
2.36012e-05
4.2474e-05
2.54252e-05
4.26609e-05
2.65386e-05
4.29676e-05
2.7127e-05
4.34166e-05
2.73191e-05
4.40266e-05
2.71924e-05
4.48069e-05
2.67846e-05
4.57517e-05
2.61096e-05
4.68358e-05
2.51733e-05
4.80139e-05
2.39882e-05
4.92244e-05
2.25825e-05
5.0398e-05
2.10021e-05
5.14689e-05
1.93074e-05
5.23855e-05
1.75653e-05
5.3117e-05
1.58392e-05
1.41817e-05
5.3655e-05
4.64031e-05
4.24169e-06
4.63701e-05
1.14209e-05
4.63657e-05
1.68523e-05
4.64137e-05
2.07828e-05
4.65333e-05
2.34816e-05
4.67428e-05
2.52156e-05
4.70622e-05
2.62192e-05
4.75122e-05
2.6677e-05
4.81113e-05
2.67201e-05
4.88711e-05
2.64326e-05
4.97916e-05
2.58641e-05
5.08572e-05
2.5044e-05
5.20347e-05
2.39958e-05
5.32758e-05
2.27471e-05
5.45229e-05
2.13353e-05
5.57174e-05
1.98076e-05
5.68081e-05
1.82167e-05
5.7758e-05
1.66154e-05
5.85471e-05
1.50501e-05
1.35574e-05
5.91714e-05
5.05408e-05
4.22909e-06
5.05848e-05
1.13768e-05
5.06835e-05
1.67536e-05
5.08518e-05
2.06145e-05
5.1104e-05
2.32294e-05
5.14559e-05
2.48637e-05
5.19246e-05
2.57505e-05
5.25266e-05
2.60749e-05
5.32744e-05
2.59723e-05
5.41718e-05
2.55352e-05
5.52103e-05
2.48256e-05
5.6367e-05
2.38873e-05
5.76055e-05
2.27573e-05
5.88793e-05
2.14733e-05
6.01382e-05
2.00764e-05
6.1335e-05
1.86108e-05
6.24313e-05
1.71205e-05
6.34009e-05
1.56458e-05
6.42308e-05
1.42202e-05
1.28687e-05
6.49195e-05
5.50447e-05
4.1792e-06
5.51802e-05
1.12413e-05
5.54035e-05
1.65303e-05
5.57165e-05
2.03016e-05
5.61249e-05
2.28209e-05
5.66384e-05
2.43502e-05
5.72685e-05
2.51204e-05
5.80254e-05
2.5318e-05
5.89145e-05
2.50833e-05
5.99319e-05
2.45177e-05
6.10631e-05
2.36944e-05
6.22815e-05
2.26689e-05
6.35511e-05
2.14876e-05
6.4831e-05
2.01934e-05
6.60798e-05
1.88276e-05
6.72611e-05
1.74295e-05
6.83469e-05
1.60347e-05
6.93191e-05
1.46735e-05
7.01697e-05
1.33696e-05
1.214e-05
7.08984e-05
5.99473e-05
4.0881e-06
6.01889e-05
1.09996e-05
6.05581e-05
1.61611e-05
6.10389e-05
1.98208e-05
6.16243e-05
2.22355e-05
6.23145e-05
2.36601e-05
6.31127e-05
2.43222e-05
6.40217e-05
2.4409e-05
6.50395e-05
2.40655e-05
6.61565e-05
2.34006e-05
6.73545e-05
2.24965e-05
6.86067e-05
2.14167e-05
6.98811e-05
2.02133e-05
7.11435e-05
1.8931e-05
7.2362e-05
1.76091e-05
7.35099e-05
1.62816e-05
7.45676e-05
1.4977e-05
7.55232e-05
1.37179e-05
7.6372e-05
1.25208e-05
1.1397e-05
7.7115e-05
6.5285e-05
3.95051e-06
6.56487e-05
1.06359e-05
6.6185e-05
1.56248e-05
6.6855e-05
1.91509e-05
6.76346e-05
2.14559e-05
6.85114e-05
2.27832e-05
6.9479e-05
2.33546e-05
7.05322e-05
2.33559e-05
7.16628e-05
2.29349e-05
7.28574e-05
2.2206e-05
7.40971e-05
2.12569e-05
7.53577e-05
2.0156e-05
7.6613e-05
1.8958e-05
7.78369e-05
1.77072e-05
7.90062e-05
1.64398e-05
8.01026e-05
1.51852e-05
8.11135e-05
1.39661e-05
8.20319e-05
1.27995e-05
8.28558e-05
1.16969e-05
1.06657e-05
8.35872e-05
7.10989e-05
3.75793e-06
7.1605e-05
1.01298e-05
7.23318e-05
1.4898e-05
7.32111e-05
1.82716e-05
7.41985e-05
2.04684e-05
7.52673e-05
2.17145e-05
7.64005e-05
2.22213e-05
7.75857e-05
2.21707e-05
7.88105e-05
2.17102e-05
8.00602e-05
2.09563e-05
8.13176e-05
1.99994e-05
8.25636e-05
1.891e-05
8.37787e-05
1.77429e-05
8.49449e-05
1.6541e-05
8.60471e-05
1.53376e-05
8.70742e-05
1.41581e-05
8.80194e-05
1.3021e-05
8.88795e-05
1.19394e-05
8.96549e-05
1.09215e-05
9.97195e-06
9.03486e-05
7.74375e-05
3.49479e-06
7.81156e-05
9.45171e-06
7.90612e-05
1.39524e-05
8.01705e-05
1.71623e-05
8.13769e-05
1.9262e-05
8.26389e-05
2.04525e-05
8.39301e-05
2.09302e-05
8.52322e-05
2.08685e-05
8.65306e-05
2.04117e-05
8.7812e-05
1.96749e-05
8.90629e-05
1.87485e-05
9.02705e-05
1.77024e-05
9.14231e-05
1.65903e-05
9.25109e-05
1.54532e-05
9.35265e-05
1.4322e-05
9.44654e-05
1.32191e-05
9.53258e-05
1.21606e-05
9.61082e-05
1.11569e-05
9.68151e-05
1.02146e-05
9.33685e-06
9.74502e-05
8.43644e-05
3.12678e-06
8.52592e-05
8.55694e-06
8.6457e-05
1.27546e-05
8.78155e-05
1.58038e-05
8.92473e-05
1.78301e-05
9.0699e-05
1.90008e-05
9.21373e-05
1.94919e-05
9.35409e-05
1.94649e-05
9.48955e-05
1.90571e-05
9.61906e-05
1.83798e-05
9.74181e-05
1.7521e-05
9.85717e-05
1.65487e-05
9.9647e-05
1.5515e-05
0.000100641
1.4459e-05
0.000101553
1.34096e-05
0.000102385
1.23876e-05
0.000103138
1.14071e-05
0.000103818
1.04777e-05
0.000104428
9.60482e-06
8.79098e-06
0.000104973
9.19747e-05
2.57363e-06
9.31463e-05
7.38539e-06
9.46277e-05
1.12732e-05
9.62452e-05
1.41863e-05
9.78977e-05
1.61777e-05
9.95236e-05
1.73749e-05
0.000101086
1.79297e-05
0.000102562
1.79884e-05
0.000103941
1.76781e-05
0.000105218
1.71035e-05
0.000106391
1.63481e-05
0.000107462
1.54771e-05
0.000108437
1.45405e-05
0.00010932
1.35763e-05
0.000110117
1.26125e-05
0.000110835
1.16696e-05
0.00011148
1.07616e-05
0.00011206
9.89812e-06
0.00011258
9.08488e-06
8.32509e-06
0.000113046
0.000100318
0.000101814
0.000103591
0.000105476
0.000107363
0.000109183
0.000110895
0.000112473
0.000113907
0.000115193
0.000116335
0.00011734
0.00011822
0.000118985
0.000119649
0.000120224
0.000120722
0.000121154
0.000121529
0.000121855
6.56353e-06
6.31001e-06
3.69719e-06
2.86634e-06
2.40064e-06
1.29655e-06
1.76669e-06
6.33946e-07
1.41758e-06
3.49114e-07
1.19913e-06
2.18452e-07
1.04774e-06
1.51383e-07
9.35884e-07
1.11859e-07
8.502e-07
8.56837e-08
7.83324e-07
6.68761e-08
7.30787e-07
5.25368e-08
6.89726e-07
4.10608e-08
6.58238e-07
3.14885e-08
6.35008e-07
2.32298e-08
6.19081e-07
1.59269e-08
6.09746e-07
9.33551e-09
6.06298e-07
3.44735e-09
6.08926e-07
-2.62791e-09
6.14797e-07
-5.87108e-09
-1.95495e-08
1.40275e-05
9.7886e-06
1.05957e-05
6.2981e-06
8.03141e-06
3.86089e-06
6.28347e-06
2.38189e-06
5.11124e-06
1.52134e-06
4.30747e-06
1.02222e-06
3.73531e-06
7.23551e-07
3.31285e-06
5.34316e-07
2.99191e-06
4.06621e-07
2.7435e-06
3.1529e-07
2.54954e-06
2.46493e-07
2.39838e-06
1.92221e-07
2.28223e-06
1.47634e-07
2.19572e-06
1.09744e-07
2.13495e-06
7.67e-08
2.09692e-06
4.73618e-08
2.07941e-06
2.09634e-08
2.08045e-06
-3.67502e-09
2.09825e-06
-2.36734e-08
-6.0795e-08
1.94735e-05
1.17768e-05
1.66838e-05
9.0878e-06
1.39107e-05
6.63406e-06
1.15631e-05
4.72948e-06
9.72053e-06
3.36388e-06
8.3182e-06
2.42455e-06
7.25586e-06
1.78589e-06
6.44427e-06
1.34591e-06
5.81665e-06
1.03423e-06
5.32637e-06
8.05574e-07
4.94152e-06
6.31346e-07
4.64026e-06
4.93477e-07
4.40745e-06
3.80442e-07
4.23233e-06
2.84869e-07
4.10696e-06
2.02065e-07
4.02519e-06
1.29138e-07
3.98251e-06
6.36434e-08
3.97391e-06
4.92243e-09
3.99936e-06
-4.91214e-08
-1.15082e-07
2.42586e-05
1.30059e-05
2.21808e-05
1.11656e-05
1.96983e-05
9.11654e-06
1.72291e-05
7.19867e-06
1.50159e-05
5.5771e-06
1.31487e-05
4.29175e-06
1.16243e-05
3.31025e-06
1.03986e-05
2.57166e-06
9.41826e-06
2.01456e-06
8.63554e-06
1.5883e-06
8.01207e-06
1.25482e-06
7.51865e-06
9.86901e-07
7.13345e-06
7.65637e-07
6.84014e-06
5.78183e-07
6.6262e-06
4.15999e-07
6.48171e-06
2.73632e-07
6.39904e-06
1.4631e-07
6.37019e-06
3.3775e-08
6.39421e-06
-7.31448e-08
-1.7649e-07
2.88831e-05
1.37712e-05
2.74043e-05
1.26444e-05
2.53833e-05
1.11376e-05
2.30997e-05
9.48227e-06
2.08074e-05
7.86944e-06
1.86789e-05
6.42021e-06
1.68019e-05
5.18727e-06
1.52005e-05
4.17306e-06
1.38625e-05
3.35259e-06
1.27598e-05
2.69096e-06
1.18611e-05
2.15356e-06
1.11372e-05
1.71077e-06
1.05636e-05
1.33926e-06
1.012e-05
1.02174e-06
9.79005e-06
7.45958e-07
9.56002e-06
5.03665e-07
9.41878e-06
2.87552e-07
9.35535e-06
9.72012e-08
9.36593e-06
-8.37262e-08
-2.37106e-07
3.35517e-05
1.42048e-05
3.25565e-05
1.36397e-05
3.1023e-05
1.2671e-05
2.90903e-05
1.1415e-05
2.69468e-05
1.00129e-05
2.47724e-05
8.59466e-06
2.27035e-05
7.25612e-06
2.08242e-05
6.05239e-06
1.91732e-05
5.00355e-06
1.77584e-05
4.10574e-06
1.65698e-05
3.34216e-06
1.55893e-05
2.69127e-06
1.47966e-05
2.13204e-06
1.41717e-05
1.64657e-06
1.36967e-05
1.22094e-06
1.33554e-05
8.45002e-07
1.31335e-05
5.09507e-07
1.30173e-05
2.13359e-07
1.29991e-05
-6.5577e-08
-2.86562e-07
3.83686e-05
1.43779e-05
3.77638e-05
1.42445e-05
3.66846e-05
1.37503e-05
3.51704e-05
1.29292e-05
3.33272e-05
1.18561e-05
3.12946e-05
1.06273e-05
2.9212e-05
9.33874e-06
2.71947e-05
8.0697e-06
2.53238e-05
6.87444e-06
2.36471e-05
5.78239e-06
2.21862e-05
4.80311e-06
2.09444e-05
3.93304e-06
1.99146e-05
3.16189e-06
1.90838e-05
2.47734e-06
1.84368e-05
1.86797e-06
1.79574e-05
1.32431e-06
1.76301e-05
8.36851e-07
1.74395e-05
4.0391e-07
1.7374e-05
-7.43233e-11
-3.11547e-07
4.33797e-05
1.43348e-05
4.30967e-05
1.45275e-05
4.24214e-05
1.44256e-05
4.13355e-05
1.40151e-05
3.98758e-05
1.33158e-05
3.81252e-05
1.23779e-05
3.61936e-05
1.12703e-05
3.41959e-05
1.00674e-05
3.22341e-05
8.83628e-06
3.03872e-05
7.62926e-06
2.87092e-05
6.4811e-06
2.72315e-05
5.41079e-06
2.59678e-05
4.42555e-06
2.49198e-05
3.52541e-06
2.40807e-05
2.707e-06
2.34394e-05
1.96568e-06
2.29815e-05
1.29469e-06
2.26925e-05
6.92913e-07
2.2558e-05
1.344e-07
-2.95439e-07
4.8601e-05
1.41088e-05
4.85871e-05
1.45413e-05
4.82639e-05
1.47488e-05
4.7585e-05
1.4694e-05
4.65399e-05
1.43609e-05
4.51593e-05
1.37585e-05
4.351e-05
1.29197e-05
4.16823e-05
1.18951e-05
3.97749e-05
1.07437e-05
3.78807e-05
9.52343e-06
3.60775e-05
8.28433e-06
3.44234e-05
7.0648e-06
3.29575e-05
5.89152e-06
3.17015e-05
4.7814e-06
3.06641e-05
3.7444e-06
2.98441e-05
2.78563e-06
2.92337e-05
1.90511e-06
2.8822e-05
1.10465e-06
2.8595e-05
3.61432e-07
-2.1826e-07
5.40348e-05
1.37291e-05
5.42454e-05
1.43307e-05
5.42233e-05
1.47708e-05
5.39127e-05
1.50047e-05
5.32764e-05
1.49972e-05
5.23062e-05
1.47287e-05
5.10263e-05
1.41995e-05
4.94913e-05
1.343e-05
4.77779e-05
1.24571e-05
4.59731e-05
1.13282e-05
4.41634e-05
1.00941e-05
4.24251e-05
8.80309e-06
4.08197e-05
7.49687e-06
3.93918e-05
6.20928e-06
3.81698e-05
4.9664e-06
3.71684e-05
3.78708e-06
3.63912e-05
2.68231e-06
3.58357e-05
1.66016e-06
3.54925e-05
7.04604e-07
-5.73087e-08
5.96762e-05
1.32242e-05
6.00698e-05
1.39371e-05
6.02984e-05
1.45422e-05
6.03071e-05
1.49961e-05
6.00476e-05
1.52566e-05
5.94877e-05
1.52886e-05
5.86183e-05
1.50689e-05
5.74581e-05
1.45903e-05
5.60519e-05
1.38633e-05
5.44658e-05
1.29143e-05
5.2778e-05
1.17818e-05
5.10697e-05
1.05115e-05
4.94159e-05
9.1506e-06
4.78806e-05
7.74465e-06
4.65126e-05
6.33432e-06
4.53462e-05
4.95354e-06
4.44014e-05
3.62705e-06
4.36891e-05
2.37251e-06
4.32094e-05
1.18428e-06
2.11227e-07
6.55196e-05
1.26241e-05
6.60553e-05
1.34015e-05
6.64833e-05
1.41141e-05
6.67554e-05
1.4724e-05
6.68222e-05
1.51898e-05
6.66404e-05
1.54704e-05
6.61797e-05
1.55296e-05
6.54294e-05
1.53406e-05
6.44026e-05
1.48901e-05
6.31364e-05
1.41805e-05
6.16881e-05
1.32302e-05
6.01286e-05
1.20709e-05
5.85345e-05
1.07447e-05
5.69798e-05
9.2994e-06
5.55299e-05
7.78421e-06
5.4238e-05
6.24539e-06
5.31436e-05
4.72145e-06
5.22746e-05
3.24157e-06
5.16456e-05
1.81326e-06
6.09343e-07
7.15629e-05
1.19596e-05
7.21994e-05
1.27651e-05
7.2775e-05
1.35386e-05
7.325e-05
1.42489e-05
7.35802e-05
1.48596e-05
7.37202e-05
1.53303e-05
7.36297e-05
1.56202e-05
7.32789e-05
1.56914e-05
7.26552e-05
1.55138e-05
7.17668e-05
1.5069e-05
7.06438e-05
1.43532e-05
6.93362e-05
1.33784e-05
6.79089e-05
1.2172e-05
6.64344e-05
1.07739e-05
6.49858e-05
9.23286e-06
6.36304e-05
7.60078e-06
6.24256e-05
5.92623e-06
6.14179e-05
4.24932e-06
6.06394e-05
2.59177e-06
1.15301e-06
7.78122e-05
1.12624e-05
7.85084e-05
1.20689e-05
7.91795e-05
1.28674e-05
7.97949e-05
1.36335e-05
8.0318e-05
1.43365e-05
8.07076e-05
1.49408e-05
8.09213e-05
1.54064e-05
8.09208e-05
1.56919e-05
8.06764e-05
1.57582e-05
8.01733e-05
1.55721e-05
7.94155e-05
1.5111e-05
7.84274e-05
1.43665e-05
7.72531e-05
1.33463e-05
7.59523e-05
1.20747e-05
7.45947e-05
1.05905e-05
7.3253e-05
8.94248e-06
7.19968e-05
7.18246e-06
7.08883e-05
5.35777e-06
6.99769e-05
3.50321e-06
1.84709e-06
8.42863e-05
1.05633e-05
8.50022e-05
1.1353e-05
8.57183e-05
1.21513e-05
8.64122e-05
1.29395e-05
8.70554e-05
1.36933e-05
8.76137e-05
1.43825e-05
8.80487e-05
1.49714e-05
8.83205e-05
1.54201e-05
8.83922e-05
1.56864e-05
8.82346e-05
1.57297e-05
8.78312e-05
1.55144e-05
8.71829e-05
1.50149e-05
8.63099e-05
1.42193e-05
8.52519e-05
1.31326e-05
8.40652e-05
1.17771e-05
8.28176e-05
1.01901e-05
8.15816e-05
8.41851e-06
8.04284e-05
6.511e-06
7.94193e-05
4.51225e-06
2.6806e-06
9.10191e-05
9.8928e-06
9.17165e-05
1.06556e-05
9.24298e-05
1.1438e-05
9.31435e-05
1.22258e-05
9.38365e-05
1.30003e-05
9.44822e-05
1.37368e-05
9.50487e-05
1.44049e-05
9.55002e-05
1.49686e-05
9.57994e-05
1.53872e-05
9.59113e-05
1.56178e-05
9.58077e-05
1.5618e-05
9.5472e-05
1.53506e-05
9.49036e-05
1.47877e-05
9.41206e-05
1.39156e-05
9.31602e-05
1.27375e-05
9.20761e-05
1.12742e-05
9.09337e-05
9.56097e-06
8.98029e-05
7.64175e-06
8.87485e-05
5.56669e-06
3.62397e-06
9.80675e-05
9.27553e-06
9.87144e-05
1.00087e-05
9.93839e-05
1.07685e-05
0.000100065
1.15444e-05
0.000100744
1.23215e-05
0.000101401
1.30801e-05
0.000102011
1.37946e-05
0.000102546
1.44336e-05
0.000102974
1.49599e-05
0.000103259
1.53319e-05
0.000103372
1.55054e-05
0.000103286
1.54367e-05
0.000102986
1.50875e-05
0.000102473
1.44292e-05
0.000101762
1.34477e-05
0.00010089
1.21464e-05
9.9905e-05
1.0546e-05
9.88655e-05
8.68125e-06
9.78283e-05
6.60385e-06
4.63031e-06
0.000105504
8.74463e-06
0.000106064
9.44923e-06
0.000106648
1.01845e-05
0.00010725
1.09424e-05
0.00010786
1.17112e-05
0.000108466
1.24747e-05
0.000109049
1.32116e-05
0.000109588
1.38946e-05
0.000110057
1.44906e-05
0.000110428
1.49606e-05
0.000110672
1.52613e-05
0.000110762
1.53471e-05
0.000110676
1.51739e-05
0.000110401
1.47039e-05
0.000109938
1.39103e-05
0.000109302
1.27825e-05
0.000108521
1.13278e-05
0.000107631
9.57056e-06
0.000106674
7.56116e-06
5.64122e-06
0.000113497
8.29321e-06
0.000113969
8.97769e-06
0.000114457
9.69573e-06
0.000114959
1.04403e-05
0.000115469
1.12013e-05
0.000115979
1.19647e-05
0.000116479
1.27116e-05
0.000116956
1.34178e-05
0.000117393
1.40534e-05
0.000117771
1.45823e-05
0.000118069
1.49637e-05
0.000118263
1.51532e-05
0.000118331
1.51057e-05
0.000118255
1.478e-05
0.000118022
1.41437e-05
0.000117625
1.31789e-05
0.000117068
1.18855e-05
0.00011636
1.02782e-05
0.000115529
8.3919e-06
6.60151e-06
0.000122171
0.000122508
0.000122868
0.000123249
0.000123652
0.000124072
0.000124504
0.000124942
0.000125373
0.000125784
0.000126156
0.000126469
0.000126698
0.000126817
0.000126801
0.000126626
0.000126268
0.000125699
0.000124875
)
;

boundaryField
{
    zeroGradient_plane
    {
        type            calculated;
        value           nonuniform List<scalar> 
80
(
1.75863e-06
5.8899e-06
9.49567e-06
1.23013e-05
1.42913e-05
1.55547e-05
1.62179e-05
1.64096e-05
1.62442e-05
1.58174e-05
1.52064e-05
1.44719e-05
1.36613e-05
1.28109e-05
1.19484e-05
1.10943e-05
1.02635e-05
9.46654e-06
8.71026e-06
7.99837e-06
7.97754e-06
8.64065e-06
9.33615e-06
1.00586e-05
1.07989e-05
1.15447e-05
1.22791e-05
1.29805e-05
1.3622e-05
1.41714e-05
1.45912e-05
1.48406e-05
1.48771e-05
1.46609e-05
1.41595e-05
1.33538e-05
1.22434e-05
1.0847e-05
9.21631e-06
7.69073e-06
6.34347e-07
2.1395e-06
4.05365e-06
6.45562e-06
9.42655e-06
1.30486e-05
1.7399e-05
2.25419e-05
2.85178e-05
3.53315e-05
4.29409e-05
5.12475e-05
6.00957e-05
6.92828e-05
7.85858e-05
8.78051e-05
9.6822e-05
0.000105663
0.000114569
0.000123786
-2.98415e-06
-9.52208e-06
-1.49217e-05
-1.90507e-05
-2.20623e-05
-2.41966e-05
-2.56965e-05
-2.67659e-05
-2.75533e-05
-2.81488e-05
-2.85877e-05
-2.88579e-05
-2.89083e-05
-2.86569e-05
-2.79966e-05
-2.67984e-05
-2.491e-05
-2.21165e-05
-1.80193e-05
-1.20945e-05
)
;
    }
    inlet
    {
        type            calculated;
        value           nonuniform List<scalar> 
20
(
-1.99006e-05
-2.16598e-05
-2.35745e-05
-2.56584e-05
-2.79266e-05
-3.03953e-05
-3.30822e-05
-3.60066e-05
-3.91895e-05
-4.26538e-05
-4.64243e-05
-5.05282e-05
-5.49948e-05
-5.98562e-05
-6.51474e-05
-7.09063e-05
-7.71743e-05
-8.39964e-05
-9.14216e-05
-9.95031e-05
)
;
    }
    plate
    {
        type            calculated;
        value           uniform 0;
    }
    frontAndBack
    {
        type            empty;
        value           nonuniform 0();
    }
}


// ************************************************************************* //
