/*--------------------------------*- C++ -*----------------------------------*\
| =========                 |                                                 |
| \\      /  F ield         | OpenFOAM: The Open Source CFD Toolbox           |
|  \\    /   O peration     | Version:  v1906                                 |
|   \\  /    A nd           | Web:      www.OpenFOAM.com                      |
|    \\/     M anipulation  |                                                 |
\*---------------------------------------------------------------------------*/
FoamFile
{
    version     2.0;
    format      ascii;
    class       volVectorField;
    location    "0.05";
    object      U;
}
// * * * * * * * * * * * * * * * * * * * * * * * * * * * * * * * * * * * * * //

dimensions      [0 1 -1 0 0 0 0];


internalField   nonuniform List<vector> 
800
(
(0.997416 0.0306355 0)
(0.988657 0.105029 0)
(0.979119 0.178613 0)
(0.969858 0.247885 0)
(0.96081 0.312236 0)
(0.95205 0.372563 0)
(0.94354 0.43052 0)
(0.935233 0.487993 0)
(0.927064 0.546697 0)
(0.918948 0.607853 0)
(0.91077 0.67191 0)
(0.902364 0.73829 0)
(0.893484 0.805134 0)
(0.883755 0.869048 0)
(0.87269 0.924756 0)
(0.85927 0.964617 0)
(0.840375 0.978066 0)
(0.814219 0.950136 0)
(0.795795 0.854285 0)
(0.767544 0.638456 0)
(0.997529 0.0319886 0)
(0.988937 0.106922 0)
(0.979459 0.18072 0)
(0.970271 0.250129 0)
(0.961321 0.314606 0)
(0.952692 0.375065 0)
(0.944355 0.433172 0)
(0.936284 0.490821 0)
(0.928443 0.549735 0)
(0.920797 0.61115 0)
(0.913305 0.67554 0)
(0.905922 0.742362 0)
(0.898594 0.809819 0)
(0.891264 0.874616 0)
(0.883953 0.931659 0)
(0.876656 0.973625 0)
(0.868547 0.990646 0)
(0.860022 0.970151 0)
(0.859474 0.892563 0)
(0.851969 0.720907 0)
(0.997748 0.0337181 0)
(0.989511 0.109414 0)
(0.980188 0.183505 0)
(0.971178 0.253088 0)
(0.96246 0.317717 0)
(0.95413 0.378326 0)
(0.94619 0.436591 0)
(0.938653 0.494407 0)
(0.931554 0.553497 0)
(0.924959 0.615092 0)
(0.918984 0.679655 0)
(0.913814 0.746624 0)
(0.909739 0.814163 0)
(0.907191 0.878905 0)
(0.906825 0.935664 0)
(0.909435 0.977046 0)
(0.915315 0.993235 0)
(0.924354 0.972539 0)
(0.935936 0.900948 0)
(0.933954 0.761303 0)
(0.998031 0.0353203 0)
(0.99033 0.111832 0)
(0.981317 0.186223 0)
(0.972632 0.255959 0)
(0.964313 0.320702 0)
(0.95649 0.381404 0)
(0.949208 0.439741 0)
(0.94255 0.497592 0)
(0.936652 0.556647 0)
(0.931726 0.618085 0)
(0.928092 0.682288 0)
(0.926212 0.748563 0)
(0.926712 0.814878 0)
(0.930393 0.877602 0)
(0.938158 0.931267 0)
(0.950703 0.968426 0)
(0.967752 0.979928 0)
(0.98734 0.95631 0)
(1.00451 0.889856 0)
(1.00666 0.778123 0)
(0.998344 0.0368199 0)
(0.991344 0.114223 0)
(0.982841 0.188938 0)
(0.974671 0.258806 0)
(0.966961 0.323613 0)
(0.959887 0.384329 0)
(0.953563 0.442613 0)
(0.948159 0.500301 0)
(0.943935 0.559011 0)
(0.941271 0.619813 0)
(0.940693 0.682926 0)
(0.942888 0.747438 0)
(0.948684 0.811045 0)
(0.958946 0.869858 0)
(0.974342 0.918354 0)
(0.994863 0.949631 0)
(1.01912 0.956271 0)
(1.04376 0.932118 0)
(1.06304 0.874549 0)
(1.06866 0.787084 0)
(0.998662 0.0382391 0)
(0.992508 0.11662 0)
(0.984747 0.191686 0)
(0.977323 0.261662 0)
(0.970469 0.326463 0)
(0.964423 0.387079 0)
(0.959381 0.445129 0)
(0.955614 0.502375 0)
(0.953513 0.560317 0)
(0.95361 0.619858 0)
(0.956585 0.680998 0)
(0.963235 0.742572 0)
(0.97438 0.802051 0)
(0.990654 0.855494 0)
(1.01217 0.897744 0)
(1.03809 0.923034 0)
(1.06615 0.926111 0)
(1.09258 0.903795 0)
(1.11249 0.856452 0)
(1.12088 0.788907 0)
(0.998966 0.0395366 0)
(0.993779 0.118941 0)
(0.987009 0.194365 0)
(0.980593 0.264403 0)
(0.974874 0.329098 0)
(0.970159 0.389449 0)
(0.96673 0.447016 0)
(0.96496 0.503449 0)
(0.965351 0.560089 0)
(0.968541 0.617629 0)
(0.975271 0.675839 0)
(0.986303 0.733344 0)
(1.00225 0.787544 0)
(1.02333 0.83473 0)
(1.04905 0.870496 0)
(1.07792 0.890499 0)
(1.10733 0.891488 0)
(1.13388 0.872366 0)
(1.15394 0.83482 0)
(1.16468 0.783243 0)
(0.999246 0.0406614 0)
(0.995117 0.121066 0)
(0.989583 0.196818 0)
(0.984458 0.266843 0)
(0.980173 0.331292 0)
(0.977098 0.391162 0)
(0.975595 0.447929 0)
(0.97612 0.503102 0)
(0.979246 0.557831 0)
(0.985642 0.612598 0)
(0.996008 0.666971 0)
(1.01093 0.719484 0)
(1.03072 0.767666 0)
(1.05511 0.808307 0)
(1.08315 0.837971 0)
(1.11304 0.853712 0)
(1.14229 0.853831 0)
(1.16817 0.838434 0)
(1.18823 0.809525 0)
(1.20091 0.770584 0)
(0.999493 0.0415706 0)
(0.996484 0.122867 0)
(0.992416 0.198864 0)
(0.988865 0.268758 0)
(0.986312 0.33278 0)
(0.985169 0.391905 0)
(0.985859 0.447505 0)
(0.98888 0.500926 0)
(0.994821 0.553125 0)
(1.00431 0.604398 0)
(1.0179 0.6542 0)
(1.03594 0.701115 0)
(1.05837 0.742993 0)
(1.0846 0.77729 0)
(1.11339 0.801566 0)
(1.14296 0.814043 0)
(1.17118 0.814067 0)
(1.19604 0.802301 0)
(1.21595 0.780592 0)
(1.23005 0.751537 0)
(0.999708 0.0422265 0)
(0.99785 0.124206 0)
(0.995442 0.200293 0)
(0.993726 0.269888 0)
(0.993178 0.333258 0)
(0.994219 0.391336 0)
(0.997289 0.445373 0)
(1.00289 0.496551 0)
(1.01155 0.545656 0)
(1.0238 0.592857 0)
(1.03999 0.637603 0)
(1.06021 0.678667 0)
(1.08412 0.714349 0)
(1.11089 0.742816 0)
(1.13925 0.762507 0)
(1.16761 0.772512 0)
(1.19432 0.772791 0)
(1.21795 0.764187 0)
(1.23747 0.748226 0)
(1.25244 0.726799 0)
(0.999893 0.0425933 0)
(0.999188 0.124932 0)
(0.998586 0.200871 0)
(0.998925 0.269935 0)
(1.0006 0.332387 0)
(1.00401 0.389093 0)
(1.00955 0.441177 0)
(1.01767 0.489673 0)
(1.02881 0.535239 0)
(1.04334 0.577995 0)
(1.06139 0.617486 0)
(1.08284 0.652776 0)
(1.10715 0.682661 0)
(1.13345 0.705965 0)
(1.16056 0.721825 0)
(1.18718 0.72991 0)
(1.21208 0.730501 0)
(1.23428 0.724424 0)
(1.25315 0.712881 0)
(1.26843 0.697236 0)
(1.00005 0.0426366 0)
(1.00048 0.12489 0)
(1.00177 0.200346 0)
(1.00432 0.26858 0)
(1.00838 0.329812 0)
(1.01423 0.38482 0)
(1.02222 0.434606 0)
(1.03269 0.480082 0)
(1.04593 0.521834 0)
(1.06215 0.56001 0)
(1.08132 0.594328 0)
(1.10313 0.624186 0)
(1.12699 0.648859 0)
(1.15208 0.667714 0)
(1.17739 0.680392 0)
(1.20193 0.68692 0)
(1.22482 0.687716 0)
(1.24542 0.683515 0)
(1.26332 0.675241 0)
(1.27839 0.66388 0)
(1.00019 0.0423224 0)
(1.00172 0.123923 0)
(1.00494 0.19846 0)
(1.00977 0.2655 0)
(1.01626 0.325188 0)
(1.02455 0.378195 0)
(1.03485 0.425415 0)
(1.04737 0.467672 0)
(1.06227 0.505534 0)
(1.07959 0.539234 0)
(1.09917 0.568702 0)
(1.12063 0.593667 0)
(1.1434 0.613813 0)
(1.16677 0.628919 0)
(1.18995 0.638966 0)
(1.21222 0.644183 0)
(1.23297 0.645027 0)
(1.25179 0.642121 0)
(1.26843 0.636175 0)
(1.28282 0.627905 0)
(1.00032 0.0416142 0)
(1.00289 0.121874 0)
(1.00803 0.194958 0)
(1.01516 0.260385 0)
(1.02404 0.318197 0)
(1.03465 0.368954 0)
(1.04702 0.413448 0)
(1.06123 0.45245 0)
(1.07731 0.486546 0)
(1.09516 0.516088 0)
(1.11456 0.541218 0)
(1.13512 0.561958 0)
(1.15636 0.578306 0)
(1.17769 0.590332 0)
(1.19855 0.598232 0)
(1.21845 0.602336 0)
(1.23697 0.603092 0)
(1.25386 0.601023 0)
(1.26898 0.596675 0)
(1.2823 0.590578 0)
(1.00045 0.0404671 0)
(1.00404 0.118576 0)
(1.01105 0.189586 0)
(1.02042 0.252943 0)
(1.03158 0.30857 0)
(1.04429 0.356902 0)
(1.05843 0.398639 0)
(1.07393 0.434517 0)
(1.0907 0.465161 0)
(1.10858 0.491039 0)
(1.12733 0.512481 0)
(1.1466 0.529736 0)
(1.16602 0.543031 0)
(1.18515 0.552624 0)
(1.20362 0.558834 0)
(1.22109 0.562034 0)
(1.23733 0.562644 0)
(1.25218 0.561101 0)
(1.26559 0.557835 0)
(1.27754 0.553246 0)
(1.00058 0.038818 0)
(1.00522 0.113841 0)
(1.01409 0.182083 0)
(1.02561 0.242903 0)
(1.03886 0.296081 0)
(1.05341 0.341911 0)
(1.06896 0.381002 0)
(1.08533 0.414052 0)
(1.10236 0.441721 0)
(1.11985 0.464569 0)
(1.13759 0.483067 0)
(1.15531 0.497618 0)
(1.17274 0.508597 0)
(1.18961 0.516376 0)
(1.20567 0.521334 0)
(1.22074 0.523859 0)
(1.23469 0.524337 0)
(1.24745 0.523142 0)
(1.25901 0.52062 0)
(1.26938 0.517085 0)
(1.00077 0.0365756 0)
(1.00657 0.107464 0)
(1.01733 0.172218 0)
(1.03092 0.230069 0)
(1.04608 0.280609 0)
(1.06216 0.323967 0)
(1.07875 0.360644 0)
(1.0956 0.391294 0)
(1.11249 0.416586 0)
(1.12926 0.437143 0)
(1.14571 0.453517 0)
(1.16169 0.466205 0)
(1.17704 0.47566 0)
(1.1916 0.482305 0)
(1.20527 0.486539 0)
(1.21796 0.48874 0)
(1.22964 0.489258 0)
(1.2403 0.488416 0)
(1.24996 0.486503 0)
(1.25866 0.483774 0)
(1.00108 0.0335056 0)
(1.00833 0.0990701 0)
(1.02111 0.159704 0)
(1.03669 0.214328 0)
(1.0535 0.26224 0)
(1.07078 0.303349 0)
(1.08806 0.338008 0)
(1.10504 0.366794 0)
(1.1215 0.390351 0)
(1.13732 0.409314 0)
(1.15238 0.424274 0)
(1.16659 0.435769 0)
(1.17988 0.44429 0)
(1.19223 0.450281 0)
(1.2036 0.454148 0)
(1.214 0.456253 0)
(1.22344 0.456923 0)
(1.23198 0.456445 0)
(1.23965 0.455071 0)
(1.24653 0.453018 0)
(1.0017 0.0286128 0)
(1.01101 0.0870303 0)
(1.0259 0.142829 0)
(1.04328 0.194108 0)
(1.0614 0.239676 0)
(1.07947 0.279141 0)
(1.09699 0.312658 0)
(1.11368 0.340673 0)
(1.12935 0.363743 0)
(1.1439 0.382446 0)
(1.15732 0.397333 0)
(1.16962 0.408916 0)
(1.18082 0.417664 0)
(1.19098 0.424 0)
(1.20017 0.428308 0)
(1.20846 0.430931 0)
(1.21592 0.432174 0)
(1.22262 0.432306 0)
(1.22863 0.431561 0)
(1.23402 0.430141 0)
(1.0026 0.0202471 0)
(1.01424 0.0694484 0)
(1.03108 0.119479 0)
(1.04996 0.166767 0)
(1.06917 0.209472 0)
(1.08794 0.246901 0)
(1.10579 0.279037 0)
(1.1224 0.306212 0)
(1.1376 0.3289 0)
(1.1513 0.347606 0)
(1.16352 0.362818 0)
(1.17432 0.374984 0)
(1.18379 0.384513 0)
(1.19205 0.391771 0)
(1.19922 0.39709 0)
(1.20544 0.400768 0)
(1.21083 0.403073 0)
(1.21549 0.404244 0)
(1.21952 0.404494 0)
(1.22303 0.404011 0)
(0.417913 0.227221 0)
(0.242547 0.0783413 0)
(0.144398 0.0262288 0)
(0.0993423 0.00920766 0)
(0.077322 0.00371575 0)
(0.0643064 0.00186304 0)
(0.0555748 0.00114206 0)
(0.0492575 0.000785553 0)
(0.044465 0.00056737 0)
(0.0407369 0.000416824 0)
(0.0378055 0.000306499 0)
(0.0355014 0.00022267 0)
(0.0337127 0.000157331 0)
(0.0323638 0.000105506 0)
(0.0313998 6.40447e-05 0)
(0.0307853 3.05954e-05 0)
(0.0304629 4.75099e-06 0)
(0.0305107 -2.05365e-05 0)
(0.0305545 -2.47042e-05 0)
(0.0316384 -8.85999e-05 0)
(0.72589 0.428936 0)
(0.562741 0.218192 0)
(0.419753 0.105174 0)
(0.321516 0.052106 0)
(0.257087 0.0277147 0)
(0.213553 0.0161324 0)
(0.183058 0.0102065 0)
(0.160895 0.00686001 0)
(0.144238 0.00479015 0)
(0.131422 0.00341773 0)
(0.121429 0.00245955 0)
(0.113615 0.00176361 0)
(0.107556 0.00124247 0)
(0.102961 0.00084337 0)
(0.0996262 0.000533367 0)
(0.097408 0.000290739 0)
(0.0961335 0.000101852 0)
(0.0959359 -5.50827e-05 0)
(0.0959333 -0.000144219 0)
(0.0985478 -0.000374793 0)
(0.876304 0.554318 0)
(0.768731 0.362932 0)
(0.644183 0.224228 0)
(0.53336 0.136292 0)
(0.445063 0.0837337 0)
(0.377506 0.0529855 0)
(0.326439 0.0348023 0)
(0.287662 0.0236665 0)
(0.257849 0.0165358 0)
(0.234645 0.0117632 0)
(0.216445 0.00843872 0)
(0.202155 0.00604196 0)
(0.191022 0.00426442 0)
(0.182519 0.00291723 0)
(0.176263 0.00188125 0)
(0.171978 0.00107924 0)
(0.169368 0.000454438 0)
(0.168554 -3.27676e-05 0)
(0.168286 -0.000393196 0)
(0.171909 -0.000862142 0)
(0.976637 0.630757 0)
(0.909521 0.476397 0)
(0.816041 0.34024 0)
(0.716236 0.234918 0)
(0.623654 0.159775 0)
(0.54407 0.108741 0)
(0.4785 0.0748393 0)
(0.425608 0.0523097 0)
(0.383283 0.0371118 0)
(0.349482 0.0266233 0)
(0.32252 0.0191952 0)
(0.301097 0.0137986 0)
(0.284243 0.00978689 0)
(0.271232 0.00674911 0)
(0.261518 0.00441915 0)
(0.254688 0.0026218 0)
(0.250325 0.00122419 0)
(0.248494 0.000157101 0)
(0.247668 -0.000692377 0)
(0.251805 -0.00146794 0)
(1.05329 0.678234 0)
(1.01244 0.556956 0)
(0.947336 0.43638 0)
(0.867571 0.329693 0)
(0.783699 0.24292 0)
(0.703532 0.176475 0)
(0.631532 0.127559 0)
(0.569419 0.0922918 0)
(0.517167 0.0670197 0)
(0.473901 0.048826 0)
(0.43848 0.0355761 0)
(0.409789 0.0257802 0)
(0.386864 0.0184245 0)
(0.368909 0.0128257 0)
(0.355276 0.0085228 0)
(0.345446 0.0052024 0)
(0.338902 0.00262433 0)
(0.335627 0.000665677 0)
(0.333896 -0.000917436 0)
(0.338082 -0.00210673 0)
(1.11479 0.706931 0)
(1.0914 0.612461 0)
(1.04879 0.511142 0)
(0.990107 0.412541 0)
(0.921353 0.32386 0)
(0.848986 0.248953 0)
(0.778353 0.188625 0)
(0.71304 0.141631 0)
(0.65494 0.105764 0)
(0.604681 0.0786525 0)
(0.562124 0.0581851 0)
(0.526739 0.0426655 0)
(0.497857 0.030812 0)
(0.474804 0.0216912 0)
(0.456953 0.0146354 0)
(0.44375 0.00916902 0)
(0.434624 0.00492164 0)
(0.429484 0.00168735 0)
(0.426466 -0.000916666 0)
(0.430259 -0.00268812 0)
(1.16513 0.721264 0)
(1.15373 0.648214 0)
(1.12803 0.565743 0)
(1.08801 0.479706 0)
(1.03611 0.396027 0)
(0.97634 0.319411 0)
(0.913135 0.252701 0)
(0.850464 0.196884 0)
(0.791305 0.151543 0)
(0.737552 0.115442 0)
(0.690174 0.0870376 0)
(0.649478 0.0648085 0)
(0.615353 0.0474321 0)
(0.587461 0.0338402 0)
(0.565358 0.0232064 0)
(0.548566 0.0149031 0)
(0.53654 0.00842565 0)
(0.529148 0.00346177 0)
(0.524458 -0.000504242 0)
(0.527444 -0.00309584 0)
(1.20611 0.723842 0)
(1.20317 0.667774 0)
(1.18996 0.602106 0)
(1.16522 0.529966 0)
(1.12925 0.455368 0)
(1.08382 0.382384 0)
(1.03179 0.314413 0)
(0.976423 0.253728 0)
(0.920825 0.201399 0)
(0.867539 0.157481 0)
(0.818394 0.12135 0)
(0.774532 0.0920302 0)
(0.736535 0.0684499 0)
(0.704576 0.0496024 0)
(0.678555 0.0346183 0)
(0.658204 0.0227779 0)
(0.643111 0.0134685 0)
(0.633164 0.0062667 0)
(0.626452 0.000541836 0)
(0.628249 -0.00317951 0)
(1.23865 0.716509 0)
(1.2417 0.673842 0)
(1.23763 0.622456 0)
(1.22486 0.563737 0)
(1.20262 0.500001 0)
(1.17118 0.434152 0)
(1.13188 0.369186 0)
(1.08681 0.307722 0)
(1.03849 0.251678 0)
(0.989448 0.202151 0)
(0.941886 0.159492 0)
(0.897545 0.123484 0)
(0.857645 0.093566 0)
(0.822931 0.0690182 0)
(0.793765 0.0490965 0)
(0.770215 0.0330986 0)
(0.752113 0.0203697 0)
(0.73946 0.0103991 0)
(0.730452 0.00247374 0)
(0.730735 -0.00275311 0)
(1.26335 0.700766 0)
(1.27055 0.668604 0)
(1.27301 0.628993 0)
(1.26925 0.5823 0)
(1.25814 0.529617 0)
(1.23911 0.47269 0)
(1.21236 0.413703 0)
(1.17886 0.354968 0)
(1.14021 0.298603 0)
(1.0984 0.246281 0)
(1.05555 0.199107 0)
(1.01358 0.157625 0)
(0.974141 0.121912 0)
(0.938457 0.0917191 0)
(0.90737 0.0666031 0)
(0.88136 0.0460222 0)
(0.860604 0.0293811 0)
(0.845303 0.0161414 0)
(0.833864 0.00555788 0)
(0.832392 -0.00159778 0)
(1.2807 0.67804 0)
(1.29059 0.654012 0)
(1.29752 0.62386 0)
(1.30026 0.587418 0)
(1.29767 0.544994 0)
(1.28883 0.497429 0)
(1.27328 0.446058 0)
(1.25113 0.392579 0)
(1.22308 0.338844 0)
(1.19038 0.286624 0)
(1.15464 0.237418 0)
(1.11763 0.192331 0)
(1.08107 0.152044 0)
(1.04647 0.116851 0)
(1.01505 0.0867402 0)
(0.987695 0.061467 0)
(0.96497 0.0406164 0)
(0.947349 0.0237117 0)
(0.933539 0.0100458 0)
(0.930197 0.000527389 0)
(1.29123 0.649794 0)
(1.30263 0.631952 0)
(1.31235 0.609211 0)
(1.31945 0.581165 0)
(1.32296 0.547681 0)
(1.32191 0.508987 0)
(1.31555 0.465727 0)
(1.30345 0.41894 0)
(1.28563 0.369982 0)
(1.26262 0.320378 0)
(1.23536 0.271655 0)
(1.20519 0.225186 0)
(1.17359 0.182072 0)
(1.1421 0.143094 0)
(1.11212 0.108701 0)
(1.08482 0.0790368 0)
(1.06112 0.0539742 0)
(1.0418 0.0332007 0)
(1.02592 0.016132 0)
(1.02078 0.00386301 0)
(1.29554 0.617557 0)
(1.30749 0.604321 0)
(1.31865 0.58724 0)
(1.32835 0.565838 0)
(1.33582 0.539769 0)
(1.34023 0.508905 0)
(1.34076 0.473405 0)
(1.33675 0.433762 0)
(1.32781 0.390801 0)
(1.31388 0.345631 0)
(1.29533 0.299544 0)
(1.2729 0.253889 0)
(1.24768 0.209943 0)
(1.22095 0.168803 0)
(1.19406 0.131307 0)
(1.16831 0.0979932 0)
(1.14487 0.0690797 0)
(1.12474 0.0445066 0)
(1.10734 0.0238987 0)
(1.1007 0.00861212 0)
(1.29437 0.582904 0)
(1.30609 0.573025 0)
(1.31761 0.560163 0)
(1.32848 0.543857 0)
(1.33812 0.523695 0)
(1.34588 0.499373 0)
(1.35103 0.47076 0)
(1.35289 0.437962 0)
(1.35086 0.401361 0)
(1.34455 0.361628 0)
(1.33388 0.319694 0)
(1.31908 0.276683 0)
(1.30074 0.233811 0)
(1.27975 0.19228 0)
(1.25723 0.153163 0)
(1.23438 0.117309 0)
(1.21245 0.0852723 0)
(1.19258 0.0572887 0)
(1.17446 0.0332606 0)
(1.16686 0.0148899 0)
(1.28855 0.547458 0)
(1.29946 0.539982 0)
(1.31053 0.530199 0)
(1.32144 0.517702 0)
(1.33181 0.502087 0)
(1.34114 0.482992 0)
(1.34888 0.460145 0)
(1.3544 0.433416 0)
(1.35711 0.402873 0)
(1.35647 0.368822 0)
(1.35212 0.331825 0)
(1.34394 0.292687 0)
(1.33208 0.252408 0)
(1.31702 0.212102 0)
(1.29952 0.172898 0)
(1.28055 0.135816 0)
(1.26123 0.101666 0)
(1.24269 0.0709658 0)
(1.22479 0.0439272 0)
(1.21701 0.0226713 0)
(1.27901 0.512632 0)
(1.2887 0.506877 0)
(1.2987 0.49933 0)
(1.30882 0.489647 0)
(1.31882 0.477467 0)
(1.32835 0.462429 0)
(1.33699 0.444212 0)
(1.34427 0.422568 0)
(1.34965 0.397373 0)
(1.35261 0.368674 0)
(1.35269 0.336728 0)
(1.34956 0.302024 0)
(1.3431 0.265281 0)
(1.33341 0.227408 0)
(1.32091 0.189436 0)
(1.30625 0.152411 0)
(1.29032 0.117278 0)
(1.27404 0.0847718 0)
(1.2573 0.0554003 0)
(1.25028 0.0317462 0)
(1.26679 0.480308 0)
(1.27501 0.475807 0)
(1.28357 0.469879 0)
(1.29236 0.46224 0)
(1.30123 0.452578 0)
(1.30995 0.44057 0)
(1.31823 0.425894 0)
(1.32573 0.408263 0)
(1.33205 0.387459 0)
(1.33674 0.363372 0)
(1.33937 0.336043 0)
(1.33956 0.305708 0)
(1.33704 0.272813 0)
(1.33169 0.238023 0)
(1.32363 0.202182 0)
(1.3132 0.166245 0)
(1.30099 0.131177 0)
(1.28761 0.097843 0)
(1.27287 0.0669923 0)
(1.26754 0.0416712 0)
(1.25294 0.450362 0)
(1.25945 0.446874 0)
(1.26628 0.442237 0)
(1.27336 0.436211 0)
(1.28062 0.428523 0)
(1.2879 0.418881 0)
(1.29502 0.406982 0)
(1.30176 0.392531 0)
(1.30783 0.375263 0)
(1.3129 0.354983 0)
(1.31662 0.331598 0)
(1.31864 0.305163 0)
(1.31867 0.275918 0)
(1.3165 0.244308 0)
(1.31205 0.210985 0)
(1.3054 0.176772 0)
(1.29686 0.142584 0)
(1.28666 0.109326 0)
(1.27448 0.0779094 0)
(1.27164 0.0518207 0)
(1.23904 0.428136 0)
(1.2441 0.425376 0)
(1.24937 0.421597 0)
(1.2548 0.416587 0)
(1.26036 0.410111 0)
(1.26596 0.401907 0)
(1.27151 0.391702 0)
(1.27689 0.379221 0)
(1.28193 0.364206 0)
(1.28643 0.346441 0)
(1.29018 0.325784 0)
(1.29291 0.302206 0)
(1.29437 0.275827 0)
(1.29434 0.246951 0)
(1.29264 0.216081 0)
(1.28917 0.183908 0)
(1.28393 0.151259 0)
(1.27675 0.11899 0)
(1.26729 0.088021 0)
(1.26736 0.0622368 0)
(1.22625 0.402914 0)
(1.22953 0.401112 0)
(1.23303 0.398391 0)
(1.23676 0.39456 0)
(1.24071 0.389405 0)
(1.24486 0.382692 0)
(1.24916 0.374174 0)
(1.25355 0.363599 0)
(1.25795 0.350727 0)
(1.26222 0.335344 0)
(1.2662 0.317288 0)
(1.26969 0.296483 0)
(1.27245 0.272974 0)
(1.27424 0.246961 0)
(1.27479 0.218829 0)
(1.27385 0.189156 0)
(1.27119 0.158685 0)
(1.26625 0.128243 0)
(1.25886 0.098847 0)
(1.26141 0.0744101 0)
)
;

boundaryField
{
    zeroGradient_plane
    {
        type            zeroGradient;
    }
    inlet
    {
        type            fixedValue;
        value           uniform (1 0 0);
    }
    plate
    {
        type            noSlip;
    }
    frontAndBack
    {
        type            empty;
    }
}


// ************************************************************************* //
