/*--------------------------------*- C++ -*----------------------------------*\
| =========                 |                                                 |
| \\      /  F ield         | OpenFOAM: The Open Source CFD Toolbox           |
|  \\    /   O peration     | Version:  v1906                                 |
|   \\  /    A nd           | Web:      www.OpenFOAM.com                      |
|    \\/     M anipulation  |                                                 |
\*---------------------------------------------------------------------------*/
FoamFile
{
    version     2.0;
    format      ascii;
    class       volScalarField;
    location    "0.5";
    object      p;
}
// * * * * * * * * * * * * * * * * * * * * * * * * * * * * * * * * * * * * * //

dimensions      [0 2 -2 0 0 0 0];


internalField   nonuniform List<scalar> 
800
(
4.73399e-07
0.00935635
0.0222376
0.0351152
0.0489019
0.0635229
0.0792752
0.0965157
0.115753
0.137699
0.163353
0.194125
0.23199
0.279876
0.342395
0.423961
0.526772
0.696278
1.07066
1.22488
-0.00633299
0.00136148
0.0133274
0.0254398
0.0384583
0.0521895
0.066858
0.0827265
0.100171
0.119694
0.141955
0.16779
0.198174
0.234157
0.276901
0.325338
0.369171
0.404362
0.45448
0.276252
-0.0180962
-0.0129575
-0.00253265
0.00828172
0.0199438
0.0321198
0.0448927
0.0583609
0.0726623
0.087934
0.104251
0.121507
0.139158
0.155771
0.168443
0.170858
0.149009
0.0863502
-0.0295293
-0.278723
-0.0316733
-0.0285415
-0.0196001
-0.0101218
8.19126e-05
0.0105656
0.0212553
0.0320676
0.0428788
0.0534374
0.0632383
0.0713252
0.0759772
0.0742739
0.0616538
0.0312185
-0.0268739
-0.122279
-0.263781
-0.472976
-0.0470005
-0.0452859
-0.0377412
-0.0296239
-0.020974
-0.0123261
-0.00391501
0.00398756
0.0109962
0.016498
0.0195053
0.0184665
0.0110452
-0.00607123
-0.0371953
-0.0874677
-0.162124
-0.264494
-0.395939
-0.557357
-0.0646034
-0.0638994
-0.0577319
-0.0510479
-0.0440957
-0.0374813
-0.031595
-0.02689
-0.0239861
-0.023784
-0.0275885
-0.0372235
-0.0550955
-0.0841264
-0.127468
-0.187989
-0.26743
-0.365283
-0.478599
-0.601964
-0.0847325
-0.0847052
-0.0798975
-0.0747183
-0.0695997
-0.0651985
-0.0620403
-0.0607299
-0.0620595
-0.0670979
-0.0772573
-0.0943075
-0.120293
-0.157299
-0.207063
-0.270456
-0.346949
-0.434197
-0.528177
-0.623546
-0.107511
-0.107866
-0.10438
-0.100759
-0.0975768
-0.095518
-0.0952048
-0.0973414
-0.102803
-0.112685
-0.1283
-0.151109
-0.18255
-0.223763
-0.275248
-0.336545
-0.406034
-0.480966
-0.557823
-0.632803
-0.133047
-0.133544
-0.131321
-0.12929
-0.128107
-0.128454
-0.130997
-0.136472
-0.145736
-0.159776
-0.179651
-0.206374
-0.240726
-0.283032
-0.332947
-0.389344
-0.450336
-0.513492
-0.576192
-0.636
-0.161424
-0.161886
-0.160851
-0.160418
-0.161245
-0.163978
-0.16927
-0.177808
-0.190344
-0.207652
-0.230454
-0.259293
-0.294384
-0.33548
-0.381789
-0.431991
-0.484375
-0.537055
-0.58824
-0.636446
-0.19269
-0.192996
-0.193056
-0.194193
-0.196981
-0.201992
-0.209798
-0.220978
-0.236101
-0.25568
-0.280088
-0.309463
-0.343613
-0.38197
-0.423596
-0.467264
-0.511599
-0.555255
-0.597071
-0.636164
-0.226832
-0.226912
-0.227958
-0.230599
-0.235236
-0.242324
-0.252304
-0.265589
-0.282535
-0.303387
-0.328215
-0.356859
-0.388891
-0.423626
-0.460168
-0.497507
-0.534626
-0.570613
-0.604746
-0.636512
-0.263772
-0.263592
-0.265503
-0.269546
-0.275864
-0.284753
-0.296488
-0.311289
-0.329291
-0.350506
-0.374779
-0.40177
-0.430956
-0.46167
-0.493155
-0.524643
-0.555426
-0.584916
-0.612681
-0.638436
-0.303346
-0.302897
-0.305555
-0.310869
-0.318663
-0.329037
-0.342078
-0.35781
-0.376172
-0.396997
-0.419988
-0.444728
-0.4707
-0.497327
-0.524023
-0.550244
-0.575522
-0.599499
-0.62193
-0.642671
-0.345278
-0.344575
-0.347882
-0.354345
-0.363409
-0.374956
-0.38888
-0.405026
-0.423179
-0.443052
-0.464284
-0.486452
-0.509103
-0.531781
-0.554065
-0.575592
-0.59608
-0.615329
-0.63322
-0.649702
-0.389134
-0.388202
-0.392121
-0.399667
-0.409865
-0.422349
-0.436834
-0.453011
-0.470555
-0.489119
-0.508338
-0.52784
-0.547263
-0.566283
-0.584619
-0.602053
-0.618429
-0.633651
-0.647679
-0.660514
-0.434251
-0.433109
-0.437677
-0.446349
-0.457674
-0.471024
-0.485946
-0.502007
-0.518799
-0.535945
-0.553098
-0.569951
-0.586245
-0.601777
-0.616403
-0.630033
-0.642624
-0.654175
-0.664713
-0.674288
-0.479807
-0.478676
-0.484136
-0.494118
-0.506654
-0.520872
-0.536206
-0.552159
-0.568307
-0.584292
-0.599818
-0.614647
-0.628597
-0.641538
-0.653398
-0.664147
-0.673795
-0.682386
-0.689985
-0.696661
-0.524832
-0.525168
-0.532868
-0.545131
-0.55951
-0.574915
-0.590677
-0.606252
-0.621213
-0.635261
-0.648201
-0.659933
-0.67043
-0.679726
-0.687892
-0.695024
-0.701231
-0.706622
-0.7113
-0.715384
-0.56318
-0.567178
-0.579223
-0.59579
-0.614263
-0.633484
-0.652735
-0.671393
-0.688939
-0.704979
-0.719252
-0.73161
-0.742015
-0.750513
-0.757219
-0.762293
-0.765923
-0.768313
-0.769666
-0.770108
-1.25721
-2.31598
-2.27503
-2.04876
-1.85449
-1.70196
-1.58319
-1.48932
-1.41298
-1.34921
-1.29483
-1.24771
-1.20634
-1.16969
-1.13704
-1.10798
-1.0825
-1.06071
-1.0448
-1.0329
-0.87134
-1.54467
-1.71951
-1.71838
-1.66225
-1.58669
-1.51038
-1.44076
-1.37909
-1.32473
-1.27672
-1.23408
-1.196
-1.16185
-1.13119
-1.10377
-1.0797
-1.05911
-1.04415
-1.0327
-0.77378
-1.17284
-1.38299
-1.47116
-1.49022
-1.46985
-1.43095
-1.38573
-1.34002
-1.29635
-1.25568
-1.21826
-1.18401
-1.15276
-1.12437
-1.09879
-1.07628
-1.05698
-1.04308
-1.03221
-0.753545
-1.01398
-1.19463
-1.29951
-1.34959
-1.36212
-1.35127
-1.32744
-1.29728
-1.26473
-1.23205
-1.20042
-1.17045
-1.14244
-1.11658
-1.09303
-1.07218
-1.05425
-1.04148
-1.03137
-0.740407
-0.918362
-1.06318
-1.16545
-1.22935
-1.26219
-1.27202
-1.26622
-1.25056
-1.22922
-1.20501
-1.17976
-1.15462
-1.13032
-1.10734
-1.08609
-1.0671
-1.05071
-1.03919
-1.03006
-0.729235
-0.855324
-0.969166
-1.06113
-1.1284
-1.17221
-1.19606
-1.20433
-1.20128
-1.19049
-1.17478
-1.15624
-1.13634
-1.11614
-1.0964
-1.07775
-1.06085
-1.04616
-1.03604
-1.02812
-0.7175
-0.811405
-0.901448
-0.980799
-1.04525
-1.09328
-1.12551
-1.14391
-1.15105
-1.14959
-1.14193
-1.13008
-1.11563
-1.09981
-1.0836
-1.06779
-1.05319
-1.04039
-1.03183
-1.02529
-0.705175
-0.777933
-0.850194
-0.917621
-0.97656
-1.02469
-1.06112
-1.08619
-1.10107
-1.10742
-1.107
-1.10152
-1.0925
-1.08121
-1.06873
-1.05597
-1.04385
-1.03309
-1.02626
-1.0212
-0.693215
-0.751046
-0.809805
-0.866826
-0.919382
-0.965236
-1.00293
-1.03185
-1.05218
-1.06468
-1.07046
-1.07081
-1.06699
-1.06021
-1.05154
-1.04198
-1.03248
-1.02389
-1.01891
-1.01535
-0.682409
-0.729117
-0.777343
-0.825459
-0.871566
-0.913831
-0.950741
-0.981282
-1.00501
-1.022
-1.03279
-1.03817
-1.03912
-1.03665
-1.03176
-1.02543
-1.01863
-1.01228
-1.00924
-1.00705
-0.673416
-0.711462
-0.751216
-0.79169
-0.831612
-0.869604
-0.904351
-0.934757
-0.96007
-0.979941
-0.994417
-1.00388
-1.00894
-1.01038
-1.00905
-1.00586
-1.00173
-0.997641
-0.996531
-0.995405
-0.666794
-0.697851
-0.730598
-0.76444
-0.798552
-0.831954
-0.863606
-0.892519
-0.917862
-0.939062
-0.955845
-0.968242
-0.976554
-0.98129
-0.983111
-0.982785
-0.981147
-0.97919
-0.979869
-0.979331
-0.662996
-0.688266
-0.715085
-0.743105
-0.771801
-0.800508
-0.828457
-0.854841
-0.878894
-0.899978
-0.917652
-0.93171
-0.942192
-0.94936
-0.953664
-0.955706
-0.956184
-0.956057
-0.95819
-0.957551
-0.662441
-0.682816
-0.704528
-0.727377
-0.751038
-0.775071
-0.798936
-0.822021
-0.84369
-0.863353
-0.88052
-0.894864
-0.906249
-0.91474
-0.920592
-0.924229
-0.926186
-0.927348
-0.930347
-0.928701
-0.66539
-0.681561
-0.69882
-0.717049
-0.736043
-0.755515
-0.775095
-0.794339
-0.812761
-0.829868
-0.845212
-0.858438
-0.869325
-0.877813
-0.884006
-0.888166
-0.890663
-0.892278
-0.89526
-0.891494
-0.67266
-0.685124
-0.698389
-0.712382
-0.726973
-0.741971
-0.757123
-0.772119
-0.786599
-0.800184
-0.812505
-0.823246
-0.832177
-0.839184
-0.844287
-0.847627
-0.849434
-0.850378
-0.852177
-0.845036
-0.683322
-0.692564
-0.70234
-0.712576
-0.72316
-0.733945
-0.744739
-0.75531
-0.765395
-0.774719
-0.783009
-0.790029
-0.795604
-0.79964
-0.802142
-0.803186
-0.802905
-0.801862
-0.80113
-0.789323
-0.702715
-0.708678
-0.714796
-0.721024
-0.727277
-0.733446
-0.739397
-0.744969
-0.749979
-0.754234
-0.757546
-0.75975
-0.760729
-0.76043
-0.758864
-0.75608
-0.752148
-0.74755
-0.742649
-0.724722
-0.719154
-0.722891
-0.726592
-0.730119
-0.733342
-0.736107
-0.738238
-0.739548
-0.739845
-0.738951
-0.736722
-0.733064
-0.727956
-0.721455
-0.713689
-0.704811
-0.694975
-0.684669
-0.673478
-0.647953
-0.769633
-0.768284
-0.766171
-0.763269
-0.75945
-0.754583
-0.748553
-0.741259
-0.732623
-0.722602
-0.711207
-0.698523
-0.68472
-0.670062
-0.654878
-0.639508
-0.624253
-0.6093
-0.59233
-0.560584
)
;

boundaryField
{
    zeroGradient_plane
    {
        type            zeroGradient;
    }
    inlet
    {
        type            zeroGradient;
    }
    plate
    {
        type            zeroGradient;
    }
    frontAndBack
    {
        type            empty;
    }
}


// ************************************************************************* //
