/*--------------------------------*- C++ -*----------------------------------*\
| =========                 |                                                 |
| \\      /  F ield         | OpenFOAM: The Open Source CFD Toolbox           |
|  \\    /   O peration     | Version:  v1906                                 |
|   \\  /    A nd           | Web:      www.OpenFOAM.com                      |
|    \\/     M anipulation  |                                                 |
\*---------------------------------------------------------------------------*/
FoamFile
{
    version     2.0;
    format      ascii;
    class       volVectorField;
    location    "0.5";
    object      U;
}
// * * * * * * * * * * * * * * * * * * * * * * * * * * * * * * * * * * * * * //

dimensions      [0 1 -1 0 0 0 0];


internalField   nonuniform List<vector> 
800
(
(0.997849 0.0243334 0)
(0.990618 0.0832396 0)
(0.982737 0.143703 0)
(0.975055 0.204631 0)
(0.967509 0.266244 0)
(0.960154 0.329179 0)
(0.952948 0.394197 0)
(0.945841 0.461997 0)
(0.938761 0.533047 0)
(0.931617 0.607393 0)
(0.924285 0.684443 0)
(0.916591 0.762741 0)
(0.90828 0.839721 0)
(0.898973 0.911446 0)
(0.888179 0.972251 0)
(0.874874 1.01423 0)
(0.85589 1.02666 0)
(0.829466 0.994472 0)
(0.811037 0.89088 0)
(0.782414 0.663197 0)
(0.997941 0.0254538 0)
(0.990851 0.0848046 0)
(0.983026 0.14545 0)
(0.975415 0.2065 0)
(0.967967 0.268229 0)
(0.960741 0.331291 0)
(0.953708 0.396455 0)
(0.946835 0.46443 0)
(0.940083 0.535696 0)
(0.933406 0.610314 0)
(0.926752 0.68772 0)
(0.920066 0.766495 0)
(0.913283 0.844136 0)
(0.906333 0.91681 0)
(0.899231 0.979035 0)
(0.891963 1.02323 0)
(0.88366 1.03939 0)
(0.874696 1.01491 0)
(0.873587 0.93019 0)
(0.864689 0.748137 0)
(0.998121 0.0268853 0)
(0.991327 0.0868611 0)
(0.983645 0.147751 0)
(0.976206 0.208953 0)
(0.968983 0.270821 0)
(0.962052 0.334025 0)
(0.955411 0.399344 0)
(0.949071 0.467489 0)
(0.943057 0.538942 0)
(0.937424 0.613764 0)
(0.932272 0.691383 0)
(0.927768 0.770364 0)
(0.924184 0.84817 0)
(0.921934 0.9209 0)
(0.921652 0.982985 0)
(0.924108 1.02679 0)
(0.929542 1.04239 0)
(0.937756 1.01814 0)
(0.948011 0.940252 0)
(0.943645 0.792016 0)
(0.998353 0.0282115 0)
(0.992006 0.088852 0)
(0.984602 0.149989 0)
(0.977467 0.211321 0)
(0.970628 0.27329 0)
(0.964189 0.33658 0)
(0.958197 0.401967 0)
(0.952728 0.47015 0)
(0.947905 0.541583 0)
(0.943925 0.616279 0)
(0.941086 0.693587 0)
(0.93982 0.771951 0)
(0.940728 0.848645 0)
(0.944578 0.919507 0)
(0.952238 0.978704 0)
(0.96436 1.01857 0)
(0.98059 1.0299 0)
(0.998844 1.00337 0)
(1.01399 0.931679 0)
(1.01312 0.813096 0)
(0.998609 0.0294531 0)
(0.992847 0.090817 0)
(0.985892 0.152214 0)
(0.97923 0.213652 0)
(0.972964 0.27567 0)
(0.967248 0.338964 0)
(0.96219 0.404293 0)
(0.957954 0.472317 0)
(0.954786 0.543423 0)
(0.95304 0.61752 0)
(0.953211 0.693806 0)
(0.955948 0.770512 0)
(0.962039 0.844651 0)
(0.972304 0.911819 0)
(0.98736 0.966146 0)
(1.00714 1.00055 0)
(1.03015 1.00762 0)
(1.05294 0.981425 0)
(1.06965 0.91983 0)
(1.07184 0.827079 0)
(0.998871 0.0306283 0)
(0.993814 0.0927799 0)
(0.987503 0.15445 0)
(0.981513 0.215962 0)
(0.976042 0.277957 0)
(0.971303 0.341138 0)
(0.967484 0.406227 0)
(0.964849 0.473814 0)
(0.963766 0.544173 0)
(0.964736 0.61706 0)
(0.968397 0.691464 0)
(0.975499 0.765378 0)
(0.986805 0.835605 0)
(1.0029 0.897705 0)
(1.02382 0.946203 0)
(1.04867 0.975193 0)
(1.07509 0.97948 0)
(1.09924 0.956158 0)
(1.11616 0.906075 0)
(1.12084 0.834685 0)
(0.999123 0.0317022 0)
(0.994872 0.0946708 0)
(0.989411 0.156608 0)
(0.984317 0.218141 0)
(0.979884 0.280007 0)
(0.976392 0.342907 0)
(0.974117 0.407504 0)
(0.973417 0.474282 0)
(0.974767 0.543368 0)
(0.978765 0.614322 0)
(0.986102 0.685917 0)
(0.997481 0.755955 0)
(1.01345 0.821185 0)
(1.03416 0.877426 0)
(1.05905 0.919981 0)
(1.08656 0.944403 0)
(1.11402 0.947531 0)
(1.13795 0.928548 0)
(1.15475 0.889578 0)
(1.16163 0.83553 0)
(0.999356 0.0326316 0)
(0.99599 0.0963895 0)
(0.991583 0.158554 0)
(0.987619 0.220026 0)
(0.984476 0.281617 0)
(0.982499 0.344015 0)
(0.982042 0.4078 0)
(0.983543 0.473322 0)
(0.987541 0.540534 0)
(0.994661 0.608796 0)
(1.00554 0.676707 0)
(1.0207 0.741992 0)
(1.04037 0.801556 0)
(1.06424 0.851741 0)
(1.09126 0.888847 0)
(1.11957 0.909848 0)
(1.14664 0.913147 0)
(1.16972 0.899107 0)
(1.18639 0.870105 0)
(1.19517 0.830036 0)
(0.999566 0.0333794 0)
(0.997138 0.0978283 0)
(0.993971 0.160136 0)
(0.991367 0.221424 0)
(0.989758 0.282555 0)
(0.989537 0.344181 0)
(0.991118 0.406781 0)
(0.99498 0.470552 0)
(1.00168 0.535272 0)
(1.01178 0.600138 0)
(1.02578 0.663655 0)
(1.04395 0.723625 0)
(1.06616 0.777297 0)
(1.09173 0.821705 0)
(1.11938 0.854166 0)
(1.14724 0.872835 0)
(1.17319 0.877152 0)
(1.1952 0.868003 0)
(1.21173 0.847539 0)
(1.22201 0.818687 0)
(0.999751 0.0339125 0)
(0.998289 0.0988705 0)
(0.996519 0.161178 0)
(0.995482 0.222115 0)
(0.995619 0.282558 0)
(0.997346 0.343104 0)
(1.0011 0.404115 0)
(1.00735 0.465639 0)
(1.01662 0.527302 0)
(1.02935 0.588199 0)
(1.04584 0.646853 0)
(1.06609 0.701284 0)
(1.08968 0.749216 0)
(1.11574 0.788413 0)
(1.1429 0.81709 0)
(1.16955 0.834271 0)
(1.19402 0.839991 0)
(1.21487 0.835272 0)
(1.23117 0.821885 0)
(1.24252 0.801984 0)
(0.999914 0.0341984 0)
(0.999423 0.0993908 0)
(0.999164 0.161488 0)
(0.999857 0.221855 0)
(1.0019 0.281344 0)
(1.00569 0.34048 0)
(1.01164 0.399503 0)
(1.02019 0.45833 0)
(1.03174 0.516481 0)
(1.04658 0.57303 0)
(1.06481 0.626624 0)
(1.0862 0.675601 0)
(1.11015 0.718205 0)
(1.13572 0.752879 0)
(1.16167 0.778542 0)
(1.18666 0.794794 0)
(1.20946 0.801964 0)
(1.22911 0.801017 0)
(1.24503 0.793345 0)
(1.25702 0.780521 0)
(1.00006 0.0342058 0)
(1.00052 0.0992601 0)
(1.00184 0.16086 0)
(1.00437 0.220386 0)
(1.0084 0.278632 0)
(1.01428 0.336029 0)
(1.02235 0.392706 0)
(1.03295 0.448479 0)
(1.04636 0.502822 0)
(1.06271 0.554867 0)
(1.08191 0.603462 0)
(1.10359 0.647307 0)
(1.12708 0.68515 0)
(1.15147 0.715991 0)
(1.17573 0.73926 0)
(1.19882 0.754904 0)
(1.21987 0.763363 0)
(1.23823 0.765473 0)
(1.25356 0.762302 0)
(1.26578 0.754999 0)
(1.00019 0.0339038 0)
(1.00157 0.0983496 0)
(1.00448 0.15909 0)
(1.00888 0.217459 0)
(1.01491 0.274158 0)
(1.0228 0.329517 0)
(1.03278 0.383568 0)
(1.0451 0.436064 0)
(1.05988 0.486489 0)
(1.07711 0.534092 0)
(1.09657 0.577964 0)
(1.11782 0.617165 0)
(1.14022 0.650873 0)
(1.16297 0.678516 0)
(1.18525 0.699864 0)
(1.20631 0.715054 0)
(1.22554 0.724543 0)
(1.24253 0.72902 0)
(1.25706 0.729302 0)
(1.2691 0.72623 0)
(1.0003 0.0332607 0)
(1.00257 0.0965334 0)
(1.00704 0.155982 0)
(1.01328 0.212844 0)
(1.02122 0.267704 0)
(1.03095 0.320783 0)
(1.04257 0.372034 0)
(1.05619 0.421185 0)
(1.07181 0.46777 0)
(1.08932 0.511189 0)
(1.10844 0.55078 0)
(1.12871 0.58592 0)
(1.14956 0.616126 0)
(1.17037 0.64113 0)
(1.19052 0.660915 0)
(1.20948 0.675712 0)
(1.22683 0.685946 0)
(1.24232 0.692179 0)
(1.25583 0.695034 0)
(1.26736 0.695138 0)
(1.00042 0.0322398 0)
(1.00354 0.0936834 0)
(1.0095 0.15135 0)
(1.01751 0.20634 0)
(1.0272 0.259102 0)
(1.03852 0.309744 0)
(1.05143 0.358153 0)
(1.06591 0.404052 0)
(1.08187 0.447053 0)
(1.09913 0.486706 0)
(1.1174 0.522571 0)
(1.13627 0.55428 0)
(1.15528 0.5816 0)
(1.17397 0.604462 0)
(1.19189 0.622978 0)
(1.2087 0.63741 0)
(1.22411 0.648142 0)
(1.23799 0.655628 0)
(1.25027 0.660349 0)
(1.26096 0.662781 0)
(1.00054 0.0307928 0)
(1.0045 0.0896621 0)
(1.01192 0.145011 0)
(1.02157 0.197774 0)
(1.03283 0.248239 0)
(1.04545 0.296391 0)
(1.05927 0.342056 0)
(1.07418 0.384961 0)
(1.09002 0.424788 0)
(1.10658 0.461223 0)
(1.12361 0.493997 0)
(1.14078 0.522929 0)
(1.15776 0.547953 0)
(1.17421 0.569127 0)
(1.18985 0.586628 0)
(1.20446 0.600728 0)
(1.21787 0.611764 0)
(1.23002 0.62011 0)
(1.24087 0.626148 0)
(1.25045 0.630246 0)
(1.00069 0.0288532 0)
(1.00556 0.0843267 0)
(1.01443 0.136818 0)
(1.02562 0.187046 0)
(1.03823 0.235099 0)
(1.05185 0.280822 0)
(1.06623 0.323972 0)
(1.08117 0.364273 0)
(1.09649 0.401464 0)
(1.112 0.435327 0)
(1.12749 0.465714 0)
(1.14274 0.492566 0)
(1.15753 0.515916 0)
(1.17165 0.535891 0)
(1.18495 0.552693 0)
(1.19731 0.566583 0)
(1.20865 0.577858 0)
(1.21894 0.586831 0)
(1.2282 0.593814 0)
(1.23645 0.599104 0)
(1.00093 0.0262472 0)
(1.00691 0.0774059 0)
(1.01726 0.126569 0)
(1.02988 0.174094 0)
(1.04361 0.219788 0)
(1.05794 0.26332 0)
(1.07255 0.304348 0)
(1.08721 0.342568 0)
(1.10174 0.377738 0)
(1.11597 0.409693 0)
(1.12978 0.438355 0)
(1.14302 0.463735 0)
(1.15558 0.485923 0)
(1.16736 0.50508 0)
(1.1783 0.52142 0)
(1.18836 0.535191 0)
(1.19752 0.546662 0)
(1.20581 0.556103 0)
(1.21326 0.56378 0)
(1.21991 0.56994 0)
(1.00141 0.0222314 0)
(1.00889 0.0676958 0)
(1.02076 0.112992 0)
(1.03464 0.157725 0)
(1.04923 0.201292 0)
(1.06396 0.243132 0)
(1.0785 0.282778 0)
(1.09258 0.319857 0)
(1.10604 0.354091 0)
(1.11879 0.3853 0)
(1.13074 0.413401 0)
(1.14187 0.438404 0)
(1.15215 0.460399 0)
(1.1616 0.479537 0)
(1.17022 0.496021 0)
(1.17806 0.510081 0)
(1.18514 0.521962 0)
(1.19152 0.531914 0)
(1.19725 0.540177 0)
(1.20237 0.546977 0)
(1.00205 0.0156251 0)
(1.01118 0.0539724 0)
(1.02439 0.0948493 0)
(1.03928 0.13646 0)
(1.05459 0.177668 0)
(1.06975 0.217686 0)
(1.08436 0.255941 0)
(1.09816 0.292004 0)
(1.11095 0.325565 0)
(1.12264 0.356416 0)
(1.1332 0.384446 0)
(1.14263 0.409631 0)
(1.15098 0.43202 0)
(1.15833 0.451728 0)
(1.16477 0.468915 0)
(1.17037 0.483774 0)
(1.17525 0.496516 0)
(1.1795 0.507362 0)
(1.18318 0.516528 0)
(1.18638 0.524223 0)
(0.424053 0.234856 0)
(0.242661 0.0804816 0)
(0.141758 0.0267902 0)
(0.0956311 0.00935523 0)
(0.0730351 0.00376731 0)
(0.0595888 0.00189926 0)
(0.0504748 0.00118008 0)
(0.0437813 0.000827927 0)
(0.0385963 0.000614268 0)
(0.0344451 0.000468212 0)
(0.0310485 0.00036224 0)
(0.0282289 0.00028233 0)
(0.0258702 0.000219969 0)
(0.0238988 0.000169496 0)
(0.0222719 0.000126919 0)
(0.0209742 8.92802e-05 0)
(0.0200062 5.49253e-05 0)
(0.0194095 2.24256e-05 0)
(0.0191252 6.86963e-07 0)
(0.0192308 -1.47073e-05 0)
(0.7331 0.443155 0)
(0.56298 0.224737 0)
(0.414539 0.108176 0)
(0.312682 0.0536156 0)
(0.245719 0.0286095 0)
(0.200228 0.0167715 0)
(0.168079 0.0107343 0)
(0.144392 0.00733772 0)
(0.126238 0.00524728 0)
(0.111883 0.0038699 0)
(0.100264 0.00291475 0)
(0.0907034 0.00222429 0)
(0.0827606 0.00170595 0)
(0.0761514 0.0013017 0)
(0.0707038 0.000973133 0)
(0.0663366 0.000693959 0)
(0.0630275 0.000447766 0)
(0.0608579 0.000227758 0)
(0.0596795 6.58902e-05 0)
(0.0596544 -2.60063e-05 0)
(0.88138 0.575214 0)
(0.767505 0.376094 0)
(0.636582 0.232345 0)
(0.52029 0.141437 0)
(0.427475 0.0872214 0)
(0.356124 0.0555738 0)
(0.301739 0.0369035 0)
(0.259906 0.0255027 0)
(0.227135 0.01823 0)
(0.200954 0.0133853 0)
(0.179672 0.0100268 0)
(0.162137 0.00761227 0)
(0.147565 0.00581446 0)
(0.135436 0.00442678 0)
(0.125422 0.00331299 0)
(0.11735 0.00238097 0)
(0.111156 0.00157139 0)
(0.106932 0.000864501 0)
(0.104459 0.000323244 0)
(0.103944 3.36838e-05 0)
(0.978682 0.658205 0)
(0.905714 0.496868 0)
(0.805588 0.355065 0)
(0.69918 0.245652 0)
(0.600443 0.167759 0)
(0.515234 0.114968 0)
(0.444489 0.0799759 0)
(0.386721 0.056782 0)
(0.339661 0.0411861 0)
(0.30113 0.0304632 0)
(0.269329 0.0228962 0)
(0.242882 0.0174058 0)
(0.220775 0.0133034 0)
(0.202294 0.0101387 0)
(0.186966 0.00760847 0)
(0.174526 0.00550582 0)
(0.16486 0.003695 0)
(0.158054 0.0021298 0)
(0.153836 0.000906757 0)
(0.152446 0.000242298 0)
(1.05204 0.712371 0)
(1.00555 0.58512 0)
(0.933711 0.459002 0)
(0.846658 0.347679 0)
(0.755377 0.257323 0)
(0.667938 0.188272 0)
(0.588892 0.137545 0)
(0.51993 0.10106 0)
(0.460933 0.0749867 0)
(0.410912 0.0562726 0)
(0.368615 0.0426774 0)
(0.332847 0.0326264 0)
(0.302598 0.0250312 0)
(0.277088 0.0191386 0)
(0.25577 0.0144221 0)
(0.238313 0.0105125 0)
(0.224569 0.00716279 0)
(0.214622 0.00428069 0)
(0.208172 0.00199661 0)
(0.205496 0.000702671 0)
(1.11027 0.748259 0)
(1.08132 0.648905 0)
(1.03195 0.542583 0)
(0.965568 0.439309 0)
(0.888499 0.346592 0)
(0.807489 0.268417 0)
(0.728078 0.205578 0)
(0.653942 0.156733 0)
(0.586973 0.119541 0)
(0.52775 0.0914936 0)
(0.476057 0.0703504 0)
(0.431302 0.0542986 0)
(0.392788 0.0419456 0)
(0.359874 0.0322504 0)
(0.332057 0.0244429 0)
(0.309022 0.017961 0)
(0.290626 0.0124169 0)
(0.276976 0.0076505 0)
(0.267778 0.00382574 0)
(0.263385 0.00155052 0)
(1.15757 0.770416 0)
(1.14067 0.69364 0)
(1.10823 0.606996 0)
(1.06029 0.51668 0)
(0.999483 0.428932 0)
(0.930025 0.348696 0)
(0.856576 0.278939 0)
(0.783262 0.220673 0)
(0.713151 0.173429 0)
(0.648167 0.135872 0)
(0.58927 0.106335 0)
(0.536749 0.0831617 0)
(0.490501 0.0648858 0)
(0.450255 0.0502915 0)
(0.415728 0.0384072 0)
(0.38673 0.028482 0)
(0.363204 0.0199751 0)
(0.34533 0.0126426 0)
(0.332872 0.00668287 0)
(0.326318 0.00296337 0)
(1.1959 0.781453 0)
(1.18756 0.722881 0)
(1.16771 0.654095 0)
(1.13502 0.578431 0)
(1.08983 0.500154 0)
(1.03404 0.423585 0)
(0.970665 0.352319 0)
(0.903147 0.288751 0)
(0.834729 0.233989 0)
(0.768059 0.188056 0)
(0.705037 0.150239 0)
(0.646855 0.119429 0)
(0.594161 0.0943927 0)
(0.547246 0.0739399 0)
(0.506222 0.0570124 0)
(0.471167 0.0427253 0)
(0.442217 0.0304043 0)
(0.419704 0.019721 0)
(0.40351 0.0109141 0)
(0.394358 0.00516826 0)
(1.22629 0.783114 0)
(1.22414 0.739235 0)
(1.21364 0.685964 0)
(1.19308 0.624775 0)
(1.16162 0.558144 0)
(1.11954 0.489167 0)
(1.06825 0.421039 0)
(1.00996 0.356547 0)
(0.947356 0.297715 0)
(0.883091 0.245678 0)
(0.819517 0.200749 0)
(0.758499 0.162607 0)
(0.701397 0.130527 0)
(0.649144 0.103585 0)
(0.602377 0.0808091 0)
(0.561579 0.0612899 0)
(0.527196 0.0442795 0)
(0.49981 0.0293902 0)
(0.479499 0.0169185 0)
(0.46735 0.00844749 0)
(1.24937 0.776711 0)
(1.25169 0.744682 0)
(1.24809 0.704552 0)
(1.23692 0.656689 0)
(1.2169 0.60224 0)
(1.18737 0.543058 0)
(1.14849 0.481476 0)
(1.10127 0.419958 0)
(1.04744 0.360754 0)
(0.989114 0.305619 0)
(0.928569 0.255671 0)
(0.867938 0.211389 0)
(0.809067 0.172706 0)
(0.753461 0.139163 0)
(0.702312 0.110063 0)
(0.656589 0.0846207 0)
(0.617154 0.0621153 0)
(0.584938 0.0421562 0)
(0.560289 0.0251328 0)
(0.544827 0.0131398 0)
(1.26561 0.763381 0)
(1.27107 0.740856 0)
(1.27247 0.711642 0)
(1.26841 0.675506 0)
(1.25752 0.632724 0)
(1.23874 0.584153 0)
(1.21147 0.53119 0)
(1.17575 0.475624 0)
(1.13233 0.419409 0)
(1.08253 0.364401 0)
(1.02813 0.312136 0)
(0.97109 0.263684 0)
(0.913414 0.21961 0)
(0.856954 0.180008 0)
(0.80336 0.144601 0)
(0.754086 0.112878 0)
(0.710454 0.0842677 0)
(0.673816 0.058462 0)
(0.644853 0.0359995 0)
(0.625903 0.019633 0)
(1.27541 0.744225 0)
(1.28296 0.729242 0)
(1.28786 0.708927 0)
(1.28897 0.682762 0)
(1.28509 0.650521 0)
(1.27504 0.612365 0)
(1.25787 0.568903 0)
(1.23302 0.521178 0)
(1.20042 0.470571 0)
(1.16059 0.418643 0)
(1.11458 0.366936 0)
(1.0639 0.316792 0)
(1.01033 0.269208 0)
(0.955769 0.224777 0)
(0.902109 0.183687 0)
(0.85117 0.145802 0)
(0.804704 0.110815 0)
(0.764489 0.0785993 0)
(0.731561 0.0499145 0)
(0.709162 0.028343 0)
(1.2792 0.720368 0)
(1.28796 0.71128 0)
(1.29512 0.698074 0)
(1.2998 0.680142 0)
(1.30102 0.657006 0)
(1.2977 0.628407 0)
(1.2888 0.594386 0)
(1.27345 0.55534 0)
(1.25106 0.512022 0)
(1.2215 0.465482 0)
(1.18511 0.41696 0)
(1.14276 0.367727 0)
(1.09575 0.318934 0)
(1.04573 0.271485 0)
(0.994565 0.225956 0)
(0.94422 0.182597 0)
(0.896737 0.141433 0)
(0.854243 0.1026 0)
(0.818086 0.0671518 0)
(0.792573 0.0396735 0)
(1.2774 0.692993 0)
(1.28666 0.688427 0)
(1.29507 0.680777 0)
(1.30199 0.669452 0)
(1.30666 0.653886 0)
(1.30818 0.633607 0)
(1.3056 0.608305 0)
(1.29797 0.577904 0)
(1.28446 0.542609 0)
(1.2645 0.502923 0)
(1.23788 0.459613 0)
(1.20482 0.413633 0)
(1.16606 0.366005 0)
(1.12276 0.317689 0)
(1.07648 0.269473 0)
(1.0291 0.221898 0)
(0.982717 0.175307 0)
(0.939639 0.130131 0)
(0.901396 0.087771 0)
(0.873457 0.0539562 0)
(1.27053 0.66339 0)
(1.2797 0.662216 0)
(1.28852 0.658804 0)
(1.29657 0.65263 0)
(1.30328 0.643136 0)
(1.30795 0.629778 0)
(1.30981 0.612068 0)
(1.30796 0.589635 0)
(1.30155 0.562282 0)
(1.28981 0.530039 0)
(1.27215 0.49318 0)
(1.24834 0.452216 0)
(1.21852 0.407834 0)
(1.18332 0.360817 0)
(1.14382 0.311932 0)
(1.10156 0.261844 0)
(1.05844 0.211111 0)
(1.01671 0.160422 0)
(0.977869 0.111529 0)
(0.948576 0.0713747 0)
(1.25918 0.632853 0)
(1.26775 0.634169 0)
(1.2763 0.633916 0)
(1.28455 0.631652 0)
(1.29211 0.626876 0)
(1.29848 0.619052 0)
(1.30304 0.607631 0)
(1.30508 0.592094 0)
(1.30382 0.571996 0)
(1.29846 0.547023 0)
(1.28829 0.517033 0)
(1.27276 0.482087 0)
(1.25161 0.442454 0)
(1.22495 0.398572 0)
(1.19333 0.350991 0)
(1.15778 0.300301 0)
(1.11983 0.247111 0)
(1.08136 0.192267 0)
(1.04363 0.137813 0)
(1.01439 0.0918685 0)
(1.24406 0.603136 0)
(1.25165 0.606237 0)
(1.25939 0.608267 0)
(1.2671 0.608865 0)
(1.27453 0.607604 0)
(1.28134 0.603997 0)
(1.2871 0.597511 0)
(1.29126 0.587579 0)
(1.29321 0.573638 0)
(1.29226 0.555163 0)
(1.28769 0.531718 0)
(1.27886 0.502996 0)
(1.26527 0.468857 0)
(1.24665 0.42934 0)
(1.2231 0.384654 0)
(1.19512 0.33515 0)
(1.16367 0.281327 0)
(1.13009 0.224046 0)
(1.09514 0.165538 0)
(1.06754 0.114942 0)
(1.22609 0.575019 0)
(1.23229 0.579432 0)
(1.23873 0.583145 0)
(1.24528 0.585862 0)
(1.2518 0.58722 0)
(1.25807 0.58679 0)
(1.26381 0.584077 0)
(1.26865 0.57852 0)
(1.27212 0.569517 0)
(1.27371 0.55644 0)
(1.27282 0.538675 0)
(1.26883 0.515666 0)
(1.26118 0.486955 0)
(1.24942 0.452232 0)
(1.2333 0.411357 0)
(1.21286 0.364383 0)
(1.1885 0.3116 0)
(1.16085 0.253761 0)
(1.13003 0.193141 0)
(1.1056 0.139648 0)
(1.20713 0.552757 0)
(1.21191 0.558001 0)
(1.21686 0.562743 0)
(1.22193 0.566738 0)
(1.22702 0.569679 0)
(1.23203 0.571196 0)
(1.23679 0.570848 0)
(1.24108 0.568124 0)
(1.24463 0.562445 0)
(1.24708 0.55318 0)
(1.24803 0.539658 0)
(1.247 0.521213 0)
(1.24347 0.497213 0)
(1.23697 0.467115 0)
(1.22705 0.430515 0)
(1.2134 0.38719 0)
(1.1959 0.337188 0)
(1.17439 0.281035 0)
(1.14835 0.220839 0)
(1.12811 0.166952 0)
(1.18931 0.530914 0)
(1.19229 0.537167 0)
(1.19545 0.543084 0)
(1.1988 0.548451 0)
(1.20231 0.553007 0)
(1.20591 0.55643 0)
(1.20954 0.558332 0)
(1.21309 0.558253 0)
(1.21639 0.555659 0)
(1.21922 0.549941 0)
(1.22129 0.540427 0)
(1.22225 0.526399 0)
(1.22167 0.507126 0)
(1.21903 0.481904 0)
(1.21381 0.450117 0)
(1.20543 0.4113 0)
(1.19333 0.365253 0)
(1.1766 0.312294 0)
(1.15437 0.254469 0)
(1.13767 0.202253 0)
)
;

boundaryField
{
    zeroGradient_plane
    {
        type            zeroGradient;
    }
    inlet
    {
        type            fixedValue;
        value           uniform (1 0 0);
    }
    plate
    {
        type            noSlip;
    }
    frontAndBack
    {
        type            empty;
    }
}


// ************************************************************************* //
